Job 1,2,3,4-Dibenzanthracene_1 started on n086 at Sun Jan  8 22:24:08 2017
jobid: u01-0-5873024d

  +--------------------------------------------------------------------+
  |  Jaguar version 9.3, release  15                                   |
  |                                                                    |
  |  Copyright Schrodinger, Inc.                                       |
  |  All Rights Reserved.                                              |
  |                                                                    |
  |  The following have contributed to Jaguar (listed alphabetically): |
  |  Mike Beachy, Art Bochevarov, Dale Braden, Yixiang Cao,            |
  |  Chris Cortis, Rich Friesner, Bill Goddard, Hod Greeley,           |
  |  Tom Hughes, Leif Jacobson, Jean-Marc Langlois,                    |
  |  Daniel Mainz, Rob Murphy, Dean Philipp,                           |
  |  Tom Pollard, Murco Ringnalda, Mark Watson.                        |
  |                                                                    |
  |  Use of this program should be acknowledged in publications as:    |
  |                                                                    |
  |  Jaguar, version 9.3, Schrodinger, Inc., New York, NY, 2016.       |
  |                                                                    |
  |  A. D. Bochevarov, E. Harder, T. F. Hughes, J. R. Greenwood,       |
  |  D. A. Braden, D. M. Philipp, D. Rinaldo, M. D. Halls,             |
  |  J. Zhang, R. A. Friesner, "Jaguar: A High-Performance Quantum     |
  |  Chemistry Software Program with Strengths in Life and Materials   |
  |  Sciences", Int. J. Quantum Chem., 2013, 113(18), 2110-2142.       |
  +--------------------------------------------------------------------+
  
  start of program pre
  
  Job name: 1,2,3,4-Dibenzanthracene_1
  Executables used: /home/applications/Schrodinger_Suites_2016-3/jaguar-v9.3/bin/Linux-x86_64
  Temporary files : /scratch/Schrodinger_Suites/pbeni001/1,2,3,4-Dibenzanthracene_1#u01-0-5873024d
  Maestro file (input):  1,2,3,4-Dibenzanthracene_1.mae
  Maestro file (output): 1,2,3,4-Dibenzanthracene_1.01.mae
  
  basis set:             6-31g                           
  net molecular charge:    1
  multiplicity:            2
  
  Using up to  16 threads per process
  
  number of basis functions....          226
  
 Input geometry:
                                   angstroms
  atom               x                 y                 z
  C1           -5.0839892000     -0.6993894000     -0.0903190000 
  C2           -5.0868876000      0.6867142000      0.0634903000 
  C3           -3.8866647000      1.3823692000      0.1561473000 
  C4           -2.6764589000      0.6939275000      0.0908287000 
  C5           -1.4648792000      1.3674191000      0.1874139000 
  C6           -0.2247311000      0.7060081000      0.1057980000 
  C7            0.9996589000      1.4220447000      0.1278964000 
  C8            1.0833887000      2.8316138000      0.2958045000 
  C9            2.2645373000      3.5332437000      0.0893343000 
  C10           3.3780847000      2.8496289000     -0.3563592000 
  C11           3.3484942000      1.4559597000     -0.4124469000 
  C12           2.1986361000      0.7131457000     -0.0587904000 
  C13           2.2053315000     -0.7090774000      0.0447369000 
  C14           3.3726441000     -1.4494367000      0.3525164000 
  C15           3.4000642000     -2.8440492000      0.3103447000 
  C16           2.2712006000     -3.5306844000     -0.0888131000 
  C17           1.0858645000     -2.8296269000     -0.2714043000 
  C18           1.0034005000     -1.4198395000     -0.1089981000 
  C19          -0.2228366000     -0.7060421000     -0.0778998000 
  C20          -1.4609196000     -1.3694305000     -0.1655609000 
  C21          -2.6741053000     -0.6985604000     -0.0817714000 
  C22          -3.8807240000     -1.3912507000     -0.1639156000 
  H23          -6.0192264000     -1.2443058000     -0.1549026000 
  H24          -6.0247230000      1.2286594000      0.1136336000 
  H25          -3.8971334000      2.4636896000      0.2778194000 
  H26          -1.5117978000      2.4465012000      0.3049354000 
  H27           0.2153371000      3.4196907000      0.5770645000 
  H28           2.2846442000      4.6101721000      0.2272912000 
  H29           4.2705116000      3.3928630000     -0.6490816000 
  H30           4.2185505000      0.9394667000     -0.8141954000 
  H31           4.2646768000     -0.9307085000      0.6995791000 
  H32           4.3029716000     -3.3863667000      0.5715795000 
  H33           2.2852848000     -4.6086753000     -0.2189009000 
  H34           0.2141213000     -3.4194077000     -0.5358930000 
  H35          -1.5057197000     -2.4476508000     -0.2896502000 
  H36          -3.8859203000     -2.4727912000     -0.2846446000 
   
  principal moments of inertia:
        amu*angstrom^2:     1056.06585     2251.45158     3280.53930
                g*cm^2: 1.75363839E-37 3.73862284E-37 5.44746299E-37
   
  rotational constants:
               cm^(-1):      0.01596267      0.00748745      0.00513868
                   GHz:      0.47854876      0.22446808      0.15405364
   
  Molecular weight:     278.11 amu
   
  Stoichiometry: C22H14
  Molecular Point Group: C1      
  Point Group used: C1
  
 
Number of optimization coordinates:   134
Number of independent coordinates:    134
Number of non-redundant coordinates:  102
Number of frozen coordinates:           0
Number of harmonic constraints:         0
 
Number of geometric degrees of freedom:   102
Maximum geometric degrees of freedom:     102
 " " " " " excluding dummy atoms:         102
 
  nuclear repulsion energy.......    1568.600379253 hartrees
 
 Non-default options chosen:
   SCF calculation type: UDFT(b3lyp)                 
   UDFT=Becke_3_Parameter/HF+Slater+Becke88+VWN+LYP (B3LYP)
   Geometry will be optimized in redundant internal coordinates
   Electrostatic potential fit to point charges on atomic centers
   Electrostatic potential fitting constrained to reproduce
     total charge:                yes
     dipole moment:               yes
     traceless quadrupole moment: no 
     traceless octapole moment:   no 
  
 Temporary integer options set:
     73=  2
  
  Peak memory usage:   3789 Mb
  
  end of program pre
   
 Time(pre)  user:        8.4  user+sys:        8.4  wallclock:        2.3
  
  start of program onee
  
  smallest eigenvalue of S:    1.733E-04
  number of canonical orbitals.....          223
  Peak memory usage:   3812 Mb
  
  end of program onee
   
 Time(onee)  user:        6.3  user+sys:        6.3  wallclock:        1.0
  
  start of program hfig
  
  initial wavefunction generated automatically from atomic wavefunctions
  
  -------------------
  Alpha orbital space
  -------------------
 
  Irreducible     Total no   No of occupied orbitals 
  representation  orbitals   Shell_1  Shell_2    ...
  No Symm          223         73
  ------------------------
  Orbital occupation/shell    1.000
 
  ------------------
  Beta orbital space
  ------------------
 
  Irreducible     Total no   No of occupied orbitals 
  representation  orbitals   Shell_1  Shell_2    ...
  No Symm          223         72
  ------------------------
  Orbital occupation/shell    1.000
 
  
  
    Unrestricted Spin Properties ...
    Sz*(Sz+1) ..............     0.750
    <S**2> of initial guess      0.750
  
  
  Peak memory usage:   3739 Mb
  
  end of program hfig
   
 Time(hfig)  user:        4.7  user+sys:        4.7  wallclock:        1.2
  
  start of program probe
  
  Peak memory usage:   3727 Mb
  
  end of program probe
   
 Time(probe)  user:        3.6  user+sys:        3.6  wallclock:        0.8
  
  start of program grid
  
   grid     grid set  grid #  grid sym
  ------    --------  ------  --------
  coarse        0        0        1
  medium        2        1        1
  fine          0        0        1
  ultrafine     4        2        1
  charge       -1        3        1
  gradient      4        2        1
  density       0        0        1
  DFT-fine    -11        4        1
  DFT-med.    -10        5        1
  DFT-grad    -12        6        1
  DFT-der2      0        0        1
  DFT-cphf      0        0        1
  LMP2-enrg     4        2        1
  LMP2-grad     2        1        1
  DFT-cphf2     0        0        1
  PBF-dens      0        0        1
  plotting      0        0        1
  Rel-grad    -17        0        1
  
  number of gridpoints: 
     atom        C1       C2       C3       C4       C5       C6       C7
  grid # 1       97       97       97       99       96       99      100
  grid # 2      334      334      334      360      338      357      361
  grid # 3      230      230      230      247      229      251      246
  grid # 4     4304     4304     4304     4304     4304     4304     4304
  grid # 5     1192     1192     1192     1192     1192     1192     1192
  grid # 6     5226     5226     5226     5226     5226     5226     5226
   
  number of gridpoints: 
     atom        C8       C9      C10      C11      C12      C13      C14
  grid # 1       96       97       97       96       97       98       96
  grid # 2      340      336      334      340      358      359      340
  grid # 3      223      227      226      176      205      203      179
  grid # 4     4304     4304     4304     4304     4304     4304     4304
  grid # 5     1192     1192     1192     1192     1192     1192     1192
  grid # 6     5226     5226     5226     5226     5226     5226     5226
   
  number of gridpoints: 
     atom       C15      C16      C17      C18      C19      C20      C21
  grid # 1       97       97       95       97       99       95       99
  grid # 2      334      337      340      362      361      338      359
  grid # 3      227      229      226      241      250      228      247
  grid # 4     4304     4304     4304     4304     4304     4304     4304
  grid # 5     1192     1192     1192     1192     1192     1192     1192
  grid # 6     5226     5226     5226     5226     5226     5226     5226
   
  number of gridpoints: 
     atom       C22      H23      H24      H25      H26      H27      H28
  grid # 1       97      118      118      118      107      109      118
  grid # 2      334      451      451      442      423      435      452
  grid # 3      230     1333     1332     1128      637      864     1331
  grid # 4     4304     4304     4304     4304     4304     4304     4304
  grid # 5     1192     1192     1192     1192     1192     1192     1192
  grid # 6     5226     5226     5226     5226     5226     5226     5226
   
  number of gridpoints: 
     atom       H29      H30      H31      H32      H33      H34      H35
  grid # 1      118      115      115      118      118      109      107
  grid # 2      452      439      439      452      452      435      423
  grid # 3     1339      974      978     1338     1331      858      638
  grid # 4     4304     4304     4304     4304     4304     4304     4304
  grid # 5     1192     1192     1192     1192     1192     1192     1192
  grid # 6     5226     5226     5226     5226     5226     5226     5226
   
  number of gridpoints: 
     atom       H36    total
  grid # 1      118     3744
  grid # 2      442    13778
  grid # 3     1129    20190
  grid # 4     4304   154944
  grid # 5     1192    42912
  grid # 6     5226   188136
   
  Peak memory usage:   3770 Mb
  
  end of program grid
   
 Time(grid)  user:       21.5  user+sys:       21.5  wallclock:        2.4
  
  start of program rwr
  
  Peak memory usage:   3727 Mb
  
  end of program rwr
   
 Time(rwr)  user:       57.0  user+sys:       57.0  wallclock:        5.6
  
  start of program scf
  
 number of electrons..........        145
 number of alpha electrons....         73
 number of beta electrons.....         72
 number of alpha orbitals.....        223
 number of beta orbitals......        223
 number of alpha occupied orb..        73
 number of alpha virtual orb...       150
 number of beta occupied orb...        72
 number of beta virtual orb....       151
 SCF type: UDFT=Becke_3_Parameter/HF+Slater+Becke88+VWN+LYP (B3LYP)
 Energy computed with NOPS off.
  
       i  u  d  i  g                   
       t  p  i  c  r                                 RMS    maximum
       e  d  i  u  i                       energy  density   DIIS  
       r  t  s  t  d       total energy    change  change    error 
  
etot    1  N  N  5  M    -843.94770930121           7.3E-03  1.9E-01
etot    2  Y  Y  6  M    -846.04672634845  2.1E+00  1.2E-02  5.9E-02
etot    3  Y  Y  6  M    -845.33906617928 -7.1E-01  6.8E-03  1.5E-01
etot    4  N  Y  2  U    -846.26949296150  9.3E-01  5.3E-03  4.1E-02
etot    5  Y  Y  6  M    -846.35309739813  8.4E-02  1.8E-03  1.1E-02
etot    6  N  Y  2  U    -846.35831542926  5.2E-03  7.2E-04  7.8E-03
etot    7  Y  Y  6  M    -846.36129467521  3.0E-03  2.5E-04  4.9E-03
etot    8  Y  Y  6  M    -846.36212079719  8.3E-04  1.0E-04  2.0E-03
etot    9  N  Y  2  U    -846.36264094270  5.2E-04  3.9E-05  5.2E-04
etot   10  N  Y  2  U    -846.36265173686  1.1E-05  3.1E-05  3.7E-04
etot   11  N  Y  2  U    -846.36266045911  8.7E-06  9.1E-06  9.8E-05
etot   12  N  Y  2  U    -846.36266135009  8.9E-07  4.3E-06  6.3E-05
etot   13  N  N  2  U    -846.36266159452  2.4E-07  0.0E+00  0.0E+00
  
  
 Energy components, in hartrees:
   (A)  Nuclear repulsion............    1568.60037925267
   (E)  Total one-electron terms.....   -4237.78037403090
   (I)  Total two-electron terms.....    1822.81733318371
   (L)  Electronic energy............   -2414.96304084720  (E+I)
   (N)  Total energy.................    -846.36266159452  (A+L)
   (O)  Gas phase energy.............    -846.36266159452
  
                                 Total             Coulomb       Exchange+Corr.
 Total two-electron terms    1822.81733318371    1947.36937895507    -124.55204577136
   Hamiltonian  1........     935.53902468611     979.87702349952     -44.33799881340
   Hamiltonian  2........     923.50943189725     967.49235545555     -43.98292355830
  
 SCFE: SCF energy: UDFT(b3lyp)      -846.36266159452 hartrees   iterations:  13
  
 
 Alpha HOMO energy:    -0.34831
 Alpha LUMO energy:    -0.21180
 
  Alpha Orbital energies (hartrees): 
   -10.35566   -10.35518   -10.34847   -10.34795   -10.34300   -10.34288
   -10.34015   -10.33970   -10.33856   -10.33810   -10.33508   -10.33462
   -10.33459   -10.33421   -10.31689   -10.31645   -10.31288   -10.31266
   -10.31243   -10.31242   -10.31203   -10.31192    -1.05268    -1.02588
    -0.98959    -0.98068    -0.94407    -0.93274    -0.91065    -0.90409
    -0.86370    -0.85871    -0.85669    -0.80141    -0.77680    -0.77116
    -0.75250    -0.73511    -0.72589    -0.70006    -0.67977    -0.65880
    -0.65468    -0.63559    -0.61403    -0.61315    -0.60586    -0.59199
    -0.57654    -0.57491    -0.56876    -0.56729    -0.56194    -0.55785
    -0.55161    -0.54105    -0.53262    -0.52654    -0.49958    -0.49924
    -0.49394    -0.48960    -0.48462    -0.47567    -0.46030    -0.45926
    -0.45079    -0.42348    -0.40770    -0.40235    -0.35937    -0.35118
    -0.34831    -0.21180    -0.17390    -0.15800    -0.13191    -0.11301
    -0.09727    -0.08715    -0.03191    -0.03037    -0.02895
 
 
 Beta HOMO energy:    -0.34791
 Beta LUMO energy:    -0.30006
 
  Beta Orbital energies (hartrees): 
   -10.35183   -10.35140   -10.34903   -10.34852   -10.34108   -10.34092
   -10.34061   -10.34028   -10.33724   -10.33681   -10.33456   -10.33409
   -10.33391   -10.33353   -10.31726   -10.31682   -10.31262   -10.31250
   -10.31219   -10.31198   -10.31172   -10.31148    -1.04965    -1.02345
    -0.98742    -0.97748    -0.93803    -0.93073    -0.90964    -0.90083
    -0.86264    -0.85577    -0.85157    -0.79852    -0.77521    -0.76954
    -0.74998    -0.73330    -0.72445    -0.69787    -0.67842    -0.65747
    -0.65311    -0.63450    -0.61279    -0.61248    -0.60392    -0.59092
    -0.57570    -0.57334    -0.56579    -0.56325    -0.56060    -0.55429
    -0.55127    -0.54021    -0.52703    -0.52575    -0.49800    -0.49487
    -0.49227    -0.48890    -0.48310    -0.46823    -0.45883    -0.45828
    -0.43363    -0.41742    -0.40521    -0.39118    -0.35178    -0.34791
    -0.30006    -0.19278    -0.17092    -0.15428    -0.12185    -0.10651
    -0.08828    -0.08138    -0.02926    -0.02846
 
  
  
    Unrestricted Spin Properties ...
    Sz*(Sz+1)      0.750
    <S**2> ...     0.764
  
  
  Peak memory usage:   5785 Mb
  
  end of program scf
   
 Time(scf)  user:      227.1  user+sys:      227.1  wallclock:       17.3
  
  start of program der1a
  
  Peak memory usage:   3824 Mb
  
  end of program der1a
   
 Time(der1a)  user:        5.8  user+sys:        5.8  wallclock:        1.0
  
  start of program rwr
  
  Peak memory usage:   3727 Mb
  
  end of program rwr
   
 Time(rwr)  user:       34.5  user+sys:       34.5  wallclock:        4.4
  
  start of program der1b
  
   
  forces (hartrees/bohr) : total     
   
 atom  label           x              y              z
 ---- --------   -------------  -------------  -------------
    1 C1         -8.877782E-03  -7.309014E-03  -9.668061E-04
    2 C2         -8.720360E-03   7.458728E-03   9.285849E-04
    3 C3         -1.378138E-02   1.204139E-02   1.236691E-03
    4 C4         -3.281018E-03   1.088486E-02   1.295896E-03
    5 C5          1.760796E-02   1.097222E-02   9.670349E-04
    6 C6         -2.189903E-02   1.710503E-03   3.457728E-03
    7 C7          3.077745E-03   2.696862E-02   7.377858E-03
    8 C8         -5.215044E-03   8.700359E-03   7.349780E-04
    9 C9         -2.445027E-02   7.987536E-03   6.935549E-03
   10 C10         2.083323E-02  -1.949106E-02  -6.065982E-03
   11 C11         1.535045E-02   3.044488E-03  -3.285929E-03
   12 C12         2.022127E-02   1.060188E-02  -7.482007E-03
   13 C13         2.073869E-02  -1.096549E-02   6.478911E-03
   14 C14         1.425508E-02  -2.226236E-03   2.512579E-03
   15 C15         2.085390E-02   1.976211E-02   4.866799E-03
   16 C16        -2.470747E-02  -7.908412E-03  -6.377597E-03
   17 C17        -5.345714E-03  -8.917363E-03  -5.637313E-04
   18 C18         3.154523E-03  -2.752215E-02  -6.974888E-03
   19 C19        -2.196160E-02  -2.105202E-03  -3.159980E-03
   20 C20         1.824166E-02  -1.100866E-02  -1.186760E-03
   21 C21        -3.436317E-03  -1.088197E-02  -1.012899E-03
   22 C22        -1.357066E-02  -1.201286E-02  -1.404770E-03
   23 H23        -2.397861E-04   9.563183E-04   2.539014E-05
   24 H24        -1.959478E-04  -8.768670E-04  -1.653492E-05
   25 H25         9.589223E-04  -2.176549E-03  -3.258825E-06
   26 H26         2.626654E-03  -2.419148E-03  -1.487082E-04
   27 H27        -1.011527E-03  -3.878850E-03  -1.171020E-03
   28 H28        -3.087981E-04  -1.432078E-03  -5.079386E-04
   29 H29         5.125541E-04  -2.154349E-03  -2.934019E-05
   30 H30        -1.291260E-03  -1.087876E-03   6.375186E-03
   31 H31        -2.177876E-03   1.238077E-03  -5.423860E-03
   32 H32         5.276405E-04   2.457186E-03   2.475157E-06
   33 H33        -1.733341E-04   1.409883E-03   5.796455E-04
   34 H34        -1.250152E-03   3.655222E-03   1.633846E-03
   35 H35         2.661009E-03   2.307776E-03   4.253444E-04
   36 H36         9.968361E-04   2.243868E-03  -1.029779E-05
 -------------   -------------  -------------  -------------
     total        7.228063E-04   2.690469E-05   4.219009E-05
   
  Peak memory usage:   5740 Mb
  
  end of program der1b
   
 Time(der1b)  user:       49.7  user+sys:       49.7  wallclock:        4.3
  
  start of program geopt
  
 ----------------------------------------------------------------------------
  Geometry optimization step  1
  Total energy:      -846.36266159452 hartrees
 ----------------------------------------------------------------------------
  
  
  Level shifts adjusted to satisfy step-size constraints
   Step size:    0.3000310
   Cos(theta):   0.9026002
   Final level shift:  -7.8881847E-02
  
  gradient maximum:        3.2139E-02 .  (  4.5000E-04 )
  gradient rms:            9.4114E-03 .  (  3.0000E-04 )
  displacement maximum:    9.5303E-02 .  (  1.8000E-03 )
  displacement rms:        2.5917E-02 .  (  1.2000E-03 )
  
  predicted energy change:  -1.8301E-02
  step size:     0.30001
  trust radius:  0.30000
  
  molecular structure not yet converged...
  
  center of mass moved by:
     x:    -3.2981E-03     y:    -8.7007E-04     z:     3.7085E-04
  
  new geometry: 
                                   angstroms
  atom               x                 y                 z
  C1           -5.1775601406     -0.7017931583     -0.0823386870 
  C2           -5.1775043279      0.6985985763      0.0516395837 
  C3           -3.9674522361      1.4003433585      0.1341238980 
  C4           -2.7292084441      0.7090283950      0.0797658745 
  C5           -1.4832125628      1.3825455011      0.1641487756 
  C6           -0.2410577185      0.7138059478      0.0963903104 
  C7            1.0166360985      1.4456311739      0.1145176232 
  C8            1.0854380154      2.8553650673      0.2572698707 
  C9            2.2831077230      3.5357654505      0.0849126960 
  C10           3.4538788351      2.8298797647     -0.2843482798 
  C11           3.4374466119      1.4453278365     -0.3301686874 
  C12           2.2540656351      0.7236265769     -0.0411588559 
  C13           2.2583901620     -0.7202318349      0.0365699388 
  C14           3.4564269582     -1.4357428256      0.2742131381 
  C15           3.4779582698     -2.8204318024      0.2288630817 
  C16           2.2983101999     -3.5320680013     -0.0982306820 
  C17           1.0931854776     -2.8567351079     -0.2320839849 
  C18           1.0210000748     -1.4475782660     -0.0906971960 
  C19          -0.2396574577     -0.7199435594     -0.0621482734 
  C20          -1.4807567759     -1.3898481098     -0.1384850220 
  C21          -2.7288293895     -0.7166471926     -0.0702469317 
  C22          -3.9672565382     -1.4057300748     -0.1438276325 
  H23          -6.1168138017     -1.2399418410     -0.1395846899 
  H24          -6.1166745316      1.2383467427      0.0929595370 
  H25          -3.9760570211      2.4806078351      0.2398945608 
  H26          -1.5065786485      2.4611028629      0.2627038891 
  H27           0.1986832415      3.4312854634      0.4942606223 
  H28           2.3015725644      4.6142436570      0.1931592099 
  H29           4.3656902818      3.3627354121     -0.5294703957 
  H30           4.3322668566      0.9116160933     -0.6330640848 
  H31           4.3580515321     -0.8942573539      0.5408447750 
  H32           4.4022089032     -3.3499055328      0.4309493810 
  H33           2.3143961882     -4.6099519597     -0.2127583763 
  H34           0.2041805763     -3.4426850586     -0.4330503416 
  H35          -1.5049766702     -2.4679063553     -0.2410127935 
  H36          -3.9757813374     -2.4860586429     -0.2489108283 
   
  nuclear repulsion energy.......    1550.941603718 hartrees
  -------------------------------------------------
 /  end of geometry optimization iteration   1   /
 -------------------------------------------------
   
  Peak memory usage:   4726 Mb
  
  end of program geopt
   
 Time(geopt)  user:       10.4  user+sys:       10.4  wallclock:        1.0
  
  start of program onee
  
  smallest eigenvalue of S:    2.016E-04
  number of canonical orbitals.....          224
  Peak memory usage:   3812 Mb
  
  end of program onee
   
 Time(onee)  user:        4.2  user+sys:        4.2  wallclock:        0.8
  
  start of program probe
  
  Peak memory usage:   3727 Mb
  
  end of program probe
   
 Time(probe)  user:        3.2  user+sys:        3.2  wallclock:        0.5
  
  start of program grid
  
   grid     grid set  grid #  grid sym
  ------    --------  ------  --------
  coarse        0        0        1
  medium        2        1        1
  fine          0        0        1
  ultrafine     4        2        1
  charge       -1        3        1
  gradient      4        2        1
  density       0        0        1
  DFT-fine    -11        4        1
  DFT-med.    -10        5        1
  DFT-grad    -12        6        1
  DFT-der2      0        0        1
  DFT-cphf      0        0        1
  LMP2-enrg     4        2        1
  LMP2-grad     2        1        1
  DFT-cphf2     0        0        1
  PBF-dens      0        0        1
  plotting      0        0        1
  Rel-grad    -17        0        1
  
  number of gridpoints: 
     atom        C1       C2       C3       C4       C5       C6       C7
  grid # 1       97       97       97      101       97      101      101
  grid # 2      336      336      339      366      340      369      371
  grid # 3      230      231      233      250      229      254      254
  grid # 4     4304     4304     4304     4304     4304     4304     4304
  grid # 5     1192     1192     1192     1192     1192     1192     1192
  grid # 6     5226     5226     5226     5226     5226     5226     5226
   
  number of gridpoints: 
     atom        C8       C9      C10      C11      C12      C13      C14
  grid # 1       97       97       97       97      101      101       97
  grid # 2      341      341      339      338      369      369      338
  grid # 3      227      232      229      196      233      233      196
  grid # 4     4304     4304     4304     4304     4304     4304     4304
  grid # 5     1192     1192     1192     1192     1192     1192     1192
  grid # 6     5226     5226     5226     5226     5226     5226     5226
   
  number of gridpoints: 
     atom       C15      C16      C17      C18      C19      C20      C21
  grid # 1       97       97       97      101      101       97      101
  grid # 2      339      341      341      371      367      339      362
  grid # 3      228      232      227      259      254      229      255
  grid # 4     4304     4304     4304     4304     4304     4304     4304
  grid # 5     1192     1192     1192     1192     1192     1192     1192
  grid # 6     5226     5226     5226     5226     5226     5226     5226
   
  number of gridpoints: 
     atom       C22      H23      H24      H25      H26      H27      H28
  grid # 1       97      118      118      118      108      109      118
  grid # 2      339      451      451      446      424      434      452
  grid # 3      232     1332     1332     1153      651      862     1338
  grid # 4     4304     4304     4304     4304     4304     4304     4304
  grid # 5     1192     1192     1192     1192     1192     1192     1192
  grid # 6     5226     5226     5226     5226     5226     5226     5226
   
  number of gridpoints: 
     atom       H29      H30      H31      H32      H33      H34      H35
  grid # 1      118      111      111      118      118      109      108
  grid # 2      453      436      436      453      451      433      424
  grid # 3     1344      914      913     1345     1337      859      652
  grid # 4     4304     4304     4304     4304     4304     4304     4304
  grid # 5     1192     1192     1192     1192     1192     1192     1192
  grid # 6     5226     5226     5226     5226     5226     5226     5226
   
  number of gridpoints: 
     atom       H36    total
  grid # 1      118     3766
  grid # 2      446    13881
  grid # 3     1153    20328
  grid # 4     4304   154944
  grid # 5     1192    42912
  grid # 6     5226   188136
   
  Peak memory usage:   3770 Mb
  
  end of program grid
   
 Time(grid)  user:       22.4  user+sys:       22.4  wallclock:        2.4
  
  start of program rwr
  
  Peak memory usage:   3727 Mb
  
  end of program rwr
   
 Time(rwr)  user:       43.7  user+sys:       43.7  wallclock:        4.2
  
  start of program scf
  
 Energy computed with NOPS off.
  
       i  u  d  i  g                   
       t  p  i  c  r                                 RMS    maximum
       e  d  i  u  i                       energy  density   DIIS  
       r  t  s  t  d       total energy    change  change    error 
  
etot    1  N  N  2  U    -846.36323362727           1.5E-03  1.4E-02
etot    2  Y  Y  6  M    -846.37621516135  1.3E-02  4.1E-04  3.7E-03
etot    3  N  Y  2  U    -846.37601151865 -2.0E-04  2.9E-04  5.0E-03
etot    4  Y  Y  6  M    -846.37762871123  1.6E-03  8.5E-05  2.0E-03
etot    5  Y  Y  6  M    -846.37780527559  1.8E-04  2.3E-05  4.3E-04
etot    6  N  Y  2  U    -846.37791924423  1.1E-04  1.6E-05  2.4E-04
etot    7  N  Y  2  U    -846.37792218018  2.9E-06  9.7E-06  1.2E-04
etot    8  N  Y  2  U    -846.37792337779  1.2E-06  9.2E-06  7.3E-05
etot    9  N  Y  2  U    -846.37792406396  6.9E-07  3.1E-06  4.9E-05
etot   10  N  N  2  U    -846.37792416347  1.0E-07  0.0E+00  0.0E+00
  
  
 Energy components, in hartrees:
   (A)  Nuclear repulsion............    1550.94160371840
   (E)  Total one-electron terms.....   -4202.75914337460
   (I)  Total two-electron terms.....    1805.43961549273
   (L)  Electronic energy............   -2397.31952788187  (E+I)
   (N)  Total energy.................    -846.37792416347  (A+L)
   (O)  Gas phase energy.............    -846.37792416347
  
                                 Total             Coulomb       Exchange+Corr.
 Total two-electron terms    1805.43961549273    1929.77432465116    -124.33470915843
   Hamiltonian  1........     926.76775516506     971.02584664927     -44.25809148421
   Hamiltonian  2........     914.84447253715     958.74847800189     -43.90400546474
  
 SCFE: SCF energy: UDFT(b3lyp)      -846.37792416347 hartrees   iterations:  10
  
 
 Alpha HOMO energy:    -0.34576
 Alpha LUMO energy:    -0.21105
 
  Alpha Orbital energies (hartrees): 
   -10.35630   -10.35623   -10.35255   -10.35223   -10.34663   -10.34636
   -10.34543   -10.34508   -10.34238   -10.34237   -10.34217   -10.34172
   -10.33425   -10.33381   -10.31971   -10.31944   -10.31919   -10.31887
   -10.31765   -10.31749   -10.31541   -10.31530    -1.03817    -1.01380
    -0.98559    -0.97318    -0.93342    -0.92296    -0.90949    -0.89739
    -0.86356    -0.86077    -0.85116    -0.79545    -0.76965    -0.76820
    -0.74653    -0.73327    -0.72213    -0.70187    -0.67506    -0.65398
    -0.65389    -0.63036    -0.61226    -0.61139    -0.60246    -0.59049
    -0.57506    -0.57131    -0.56385    -0.56202    -0.56022    -0.55337
    -0.55327    -0.54478    -0.52535    -0.52464    -0.50035    -0.49690
    -0.49195    -0.48881    -0.48362    -0.47366    -0.46056    -0.46039
    -0.44371    -0.41839    -0.40926    -0.39945    -0.36254    -0.35426
    -0.34576    -0.21105    -0.17288    -0.16193    -0.13285    -0.11460
    -0.10142    -0.09221    -0.03554    -0.02869    -0.02632
 
 
 Beta HOMO energy:    -0.35141
 Beta LUMO energy:    -0.29836
 
  Beta Orbital energies (hartrees): 
   -10.35324   -10.35300   -10.35259   -10.35250   -10.34607   -10.34573
   -10.34514   -10.34489   -10.34138   -10.34095   -10.34049   -10.34046
   -10.33379   -10.33336   -10.31991   -10.31957   -10.31861   -10.31836
   -10.31730   -10.31716   -10.31547   -10.31534    -1.03526    -1.01122
    -0.98332    -0.97033    -0.92775    -0.92076    -0.90837    -0.89439
    -0.86263    -0.85859    -0.84491    -0.79262    -0.76818    -0.76656
    -0.74401    -0.73126    -0.72067    -0.69975    -0.67392    -0.65273
    -0.65225    -0.62933    -0.61097    -0.61065    -0.60069    -0.58939
    -0.57452    -0.56999    -0.56241    -0.55954    -0.55902    -0.55252
    -0.54747    -0.54376    -0.52389    -0.51919    -0.49904    -0.49301
    -0.49053    -0.48709    -0.48198    -0.46653    -0.45965    -0.45932
    -0.42726    -0.41125    -0.40646    -0.38997    -0.35253    -0.35141
    -0.29836    -0.19317    -0.17003    -0.15662    -0.12419    -0.10832
    -0.09192    -0.08583    -0.02937    -0.02772
 
  
  
    Unrestricted Spin Properties ...
    Sz*(Sz+1)      0.750
    <S**2> ...     0.764
  
  
  Peak memory usage:   5784 Mb
  
  end of program scf
   
 Time(scf)  user:      203.8  user+sys:      203.8  wallclock:       15.6
  
  start of program der1a
  
  Peak memory usage:   3824 Mb
  
  end of program der1a
   
 Time(der1a)  user:        3.4  user+sys:        3.4  wallclock:        0.8
  
  start of program rwr
  
  Peak memory usage:   3727 Mb
  
  end of program rwr
   
 Time(rwr)  user:       36.8  user+sys:       36.8  wallclock:        4.7
  
  start of program der1b
  
   
  forces (hartrees/bohr) : total     
   
 atom  label           x              y              z
 ---- --------   -------------  -------------  -------------
    1 C1          3.883761E-03  -1.315278E-03  -1.928062E-04
    2 C2          3.726210E-03   1.310359E-03   3.178748E-04
    3 C3         -1.336477E-03  -2.751294E-03  -2.236739E-04
    4 C4         -9.310606E-04   1.926829E-03   2.436297E-04
    5 C5          3.073184E-03  -2.331621E-03  -8.566920E-04
    6 C6         -4.351758E-03  -1.140318E-03   7.228989E-04
    7 C7          2.721448E-03   8.142238E-04   3.020579E-03
    8 C8          1.698984E-03   1.039644E-03  -1.151448E-03
    9 C9         -2.066066E-03  -1.657579E-03  -1.488209E-03
   10 C10        -1.718489E-04  -1.434794E-03   1.189451E-03
   11 C11         2.417115E-03   3.350065E-03   1.717077E-03
   12 C12        -5.553097E-03  -3.772406E-04  -4.283225E-03
   13 C13        -5.413176E-03   4.627112E-04   2.594781E-03
   14 C14         1.929680E-03  -3.279719E-03  -4.746543E-04
   15 C15         1.651855E-04   1.083407E-03  -2.260810E-03
   16 C16        -1.822737E-03   2.086347E-03   1.383450E-03
   17 C17         1.265838E-03  -1.460438E-03   1.601573E-03
   18 C18         2.349029E-03  -9.400723E-04  -2.642301E-03
   19 C19        -4.497108E-03   8.690262E-04  -8.040156E-04
   20 C20         2.684843E-03   2.532447E-03   6.335799E-04
   21 C21        -5.602021E-04  -1.631402E-03   4.486084E-05
   22 C22        -1.121904E-03   2.663922E-03   1.773088E-04
   23 H23         1.097862E-04   1.249856E-04  -6.038333E-05
   24 H24         9.698679E-05  -1.431855E-04   6.394123E-05
   25 H25         5.536784E-04  -2.213536E-04   1.029678E-04
   26 H26        -2.119205E-04  -2.897701E-04   9.228769E-05
   27 H27         3.421362E-04  -7.428034E-04  -1.108137E-03
   28 H28         1.184300E-03  -2.864185E-05  -5.073889E-04
   29 H29        -6.227826E-04   1.158217E-03   9.777691E-04
   30 H30        -9.264452E-04   3.003854E-04   2.752645E-03
   31 H31        -8.450131E-04  -7.085802E-04  -2.507857E-03
   32 H32        -6.111391E-04  -9.548804E-04  -5.830865E-04
   33 H33         1.661866E-03   1.967801E-05   9.526695E-04
   34 H34         2.663394E-05   1.281250E-03   6.917423E-04
   35 H35         1.041428E-04   1.684603E-04  -4.799789E-05
   36 H36         5.065953E-04   2.055913E-04  -1.143931E-04
 -------------   -------------  -------------  -------------
     total       -5.413319E-04  -1.142243E-05  -2.599254E-05
   
  Peak memory usage:   5740 Mb
  
  end of program der1b
   
 Time(der1b)  user:       49.3  user+sys:       49.3  wallclock:        4.1
  
  start of program geopt
  
 ----------------------------------------------------------------------------
  Geometry optimization step  2
  Total energy:      -846.37792416347 hartrees
 ----------------------------------------------------------------------------
  
  
  Level shifts adjusted to satisfy step-size constraints
   Step size:    0.3000676
   Cos(theta):   0.7234799
   Final level shift:  -1.1202894E-02
  
  energy change:          -1.5263E-02 .  (  5.0000E-05 )
  gradient maximum:        8.7273E-03 .  (  4.5000E-04 )
  gradient rms:            1.9993E-03 .  (  3.0000E-04 )
  displacement maximum:    1.4491E-01 .  (  1.8000E-03 )
  displacement rms:        2.5915E-02 .  (  1.2000E-03 )
  
  predicted energy change:  -3.0162E-03
  step size:     0.29999
  trust radius:  0.30000
  
  molecular structure not yet converged...
  
  center of mass moved by:
     x:    -3.1542E-03     y:     2.2123E-04     z:    -2.8904E-03
  
  new geometry: 
                                   angstroms
  atom               x                 y                 z
  C1           -5.1619453840     -0.7054099493     -0.0611514957 
  C2           -5.1631583768      0.6974062848      0.0462919419 
  C3           -3.9591772700      1.4009852004      0.1083475756 
  C4           -2.7245330738      0.7112002806      0.0618715981 
  C5           -1.4801796459      1.3846695471      0.1232373687 
  C6           -0.2464000552      0.7148890210      0.0728829278 
  C7            1.0098332311      1.4502626286      0.0876069438 
  C8            1.0654558599      2.8635145896      0.1851353600 
  C9            2.2661609356      3.5445144517      0.0772982306 
  C10           3.4668687330      2.8369190237     -0.1593975022 
  C11           3.4553373021      1.4543486255     -0.1967661225 
  C12           2.2487584118      0.7267494729     -0.0232984028 
  C13           2.2511123063     -0.7231257449      0.0113210551 
  C14           3.4654128155     -1.4451928206      0.1491160552 
  C15           3.4826330966     -2.8273972636      0.1124834202 
  C16           2.2791008449     -3.5404238303     -0.0881922107 
  C17           1.0724710123     -2.8641882426     -0.1649415465 
  C18           1.0129582448     -1.4511835417     -0.0746922078 
  C19          -0.2452347918     -0.7189929400     -0.0513361918 
  C20          -1.4774458576     -1.3898976689     -0.1070401102 
  C21          -2.7233552340     -0.7178699971     -0.0537537047 
  C22          -3.9568338615     -1.4082230097     -0.1113907099 
  H23          -6.1011411867     -1.2442993802     -0.1060602911 
  H24          -6.1032619326      1.2353876270      0.0821915641 
  H25          -3.9648023035      2.4826802882      0.1930823677 
  H26          -1.5025446685      2.4647949835      0.1952436845 
  H27           0.1611753727      3.4374628580      0.3395743609 
  H28           2.2788173485      4.6262664162      0.1441123644 
  H29           4.3942940368      3.3764625892     -0.3129836615 
  H30           4.3763836720      0.9196351195     -0.3898397646 
  H31           4.3873068234     -0.9046288807      0.3205202954 
  H32           4.4180155260     -3.3620592856      0.2309531921 
  H33           2.2939435617     -4.6219685723     -0.1572265157 
  H34           0.1672283600     -3.4453628866     -0.2828157521 
  H35          -1.4985915638     -2.4697880492     -0.1836893254 
  H36          -3.9610574922     -2.4899523232     -0.1960329804 
   
  nuclear repulsion energy.......    1552.891182859 hartrees
  -------------------------------------------------
 /  end of geometry optimization iteration   2   /
 -------------------------------------------------
   
  Peak memory usage:   4726 Mb
  
  end of program geopt
   
 Time(geopt)  user:        7.5  user+sys:        7.5  wallclock:        0.6
  
  start of program onee
  
  smallest eigenvalue of S:    1.841E-04
  number of canonical orbitals.....          223
  Peak memory usage:   3812 Mb
  
  end of program onee
   
 Time(onee)  user:        3.7  user+sys:        3.7  wallclock:        0.8
  
  start of program probe
  
  Peak memory usage:   3727 Mb
  
  end of program probe
   
 Time(probe)  user:        2.6  user+sys:        2.6  wallclock:        0.7
  
  start of program grid
  
   grid     grid set  grid #  grid sym
  ------    --------  ------  --------
  coarse        0        0        1
  medium        2        1        1
  fine          0        0        1
  ultrafine     4        2        1
  charge       -1        3        1
  gradient      4        2        1
  density       0        0        1
  DFT-fine    -11        4        1
  DFT-med.    -10        5        1
  DFT-grad    -12        6        1
  DFT-der2      0        0        1
  DFT-cphf      0        0        1
  LMP2-enrg     4        2        1
  LMP2-grad     2        1        1
  DFT-cphf2     0        0        1
  PBF-dens      0        0        1
  plotting      0        0        1
  Rel-grad    -17        0        1
  
  number of gridpoints: 
     atom        C1       C2       C3       C4       C5       C6       C7
  grid # 1       97       97       97       99       97      101      101
  grid # 2      336      336      339      365      339      362      364
  grid # 3      231      231      234      251      227      254      254
  grid # 4     4304     4304     4304     4304     4304     4304     4304
  grid # 5     1192     1192     1192     1192     1192     1192     1192
  grid # 6     5226     5226     5226     5226     5226     5226     5226
   
  number of gridpoints: 
     atom        C8       C9      C10      C11      C12      C13      C14
  grid # 1       97       97       97       97       99       99       97
  grid # 2      339      340      337      339      361      361      339
  grid # 3      229      231      230      221      246      248      222
  grid # 4     4304     4304     4304     4304     4304     4304     4304
  grid # 5     1192     1192     1192     1192     1192     1192     1192
  grid # 6     5226     5226     5226     5226     5226     5226     5226
   
  number of gridpoints: 
     atom       C15      C16      C17      C18      C19      C20      C21
  grid # 1       97       97       97      101      101       97       99
  grid # 2      337      339      339      364      362      339      365
  grid # 3      228      228      228      254      253      228      250
  grid # 4     4304     4304     4304     4304     4304     4304     4304
  grid # 5     1192     1192     1192     1192     1192     1192     1192
  grid # 6     5226     5226     5226     5226     5226     5226     5226
   
  number of gridpoints: 
     atom       C22      H23      H24      H25      H26      H27      H28
  grid # 1       97      118      118      118      108      110      118
  grid # 2      339      451      451      446      422      432      452
  grid # 3      234     1332     1333     1151      638      857     1332
  grid # 4     4304     4304     4304     4304     4304     4304     4304
  grid # 5     1192     1192     1192     1192     1192     1192     1192
  grid # 6     5226     5226     5226     5226     5226     5226     5226
   
  number of gridpoints: 
     atom       H29      H30      H31      H32      H33      H34      H35
  grid # 1      118      109      109      118      118      110      109
  grid # 2      451      431      431      451      452      430      422
  grid # 3     1334      845      845     1337     1333      850      636
  grid # 4     4304     4304     4304     4304     4304     4304     4304
  grid # 5     1192     1192     1192     1192     1192     1192     1192
  grid # 6     5226     5226     5226     5226     5226     5226     5226
   
  number of gridpoints: 
     atom       H36    total
  grid # 1      118     3757
  grid # 2      446    13809
  grid # 3     1151    20186
  grid # 4     4304   154944
  grid # 5     1192    42912
  grid # 6     5226   188136
   
  Peak memory usage:   3769 Mb
  
  end of program grid
   
 Time(grid)  user:       19.5  user+sys:       19.5  wallclock:        2.1
  
  start of program rwr
  
  Peak memory usage:   3727 Mb
  
  end of program rwr
   
 Time(rwr)  user:       51.3  user+sys:       51.3  wallclock:        4.6
  
  start of program scf
  
 Energy computed with NOPS off.
  
       i  u  d  i  g                   
       t  p  i  c  r                                 RMS    maximum
       e  d  i  u  i                       energy  density   DIIS  
       r  t  s  t  d       total energy    change  change    error 
  
etot    1  N  N  2  U    -846.35923334075           8.2E-04  1.4E-02
etot    2  Y  Y  6  M    -846.38068609881  2.1E-02  1.6E-04  2.1E-03
etot    3  N  Y  2  U    -846.38081757020  1.3E-04  1.1E-04  2.5E-03
etot    4  Y  Y  6  M    -846.38103591769  2.2E-04  3.8E-05  7.8E-04
etot    5  N  Y  2  U    -846.38104418674  8.3E-06  1.1E-05  2.6E-04
etot    6  N  Y  2  U    -846.38104642156  2.2E-06  4.6E-06  9.8E-05
etot    7  N  N  2  U    -846.38104670152  2.8E-07  0.0E+00  0.0E+00
  
  
 Energy components, in hartrees:
   (A)  Nuclear repulsion............    1552.89118285892
   (E)  Total one-electron terms.....   -4206.58711392034
   (I)  Total two-electron terms.....    1807.31488435990
   (L)  Electronic energy............   -2399.27222956044  (E+I)
   (N)  Total energy.................    -846.38104670152  (A+L)
   (O)  Gas phase energy.............    -846.38104670152
  
                                 Total             Coulomb       Exchange+Corr.
 Total two-electron terms    1807.31488435990    1931.68791129571    -124.37302693581
   Hamiltonian  1........     927.72304862075     971.99524487363     -44.27219625288
   Hamiltonian  2........     915.77480320148     959.69266642208     -43.91786322060
  
 SCFE: SCF energy: UDFT(b3lyp)      -846.38104670152 hartrees   iterations:   7
  
 
 Alpha HOMO energy:    -0.34662
 Alpha LUMO energy:    -0.21017
 
  Alpha Orbital energies (hartrees): 
   -10.35518   -10.35505   -10.35139   -10.35104   -10.34638   -10.34616
   -10.34453   -10.34420   -10.34287   -10.34247   -10.34157   -10.34151
   -10.33371   -10.33328   -10.31940   -10.31926   -10.31865   -10.31848
   -10.31724   -10.31699   -10.31558   -10.31543    -1.03973    -1.01459
    -0.98644    -0.97483    -0.93534    -0.92369    -0.91000    -0.89880
    -0.86439    -0.86126    -0.85232    -0.79600    -0.77065    -0.76939
    -0.74679    -0.73459    -0.72284    -0.70223    -0.67675    -0.65530
    -0.65294    -0.63056    -0.61324    -0.61214    -0.60320    -0.59185
    -0.57671    -0.57223    -0.56440    -0.56093    -0.56028    -0.55490
    -0.55425    -0.54390    -0.52607    -0.52518    -0.50102    -0.49591
    -0.49144    -0.49067    -0.48439    -0.47605    -0.46136    -0.45876
    -0.44504    -0.41971    -0.41074    -0.40047    -0.36270    -0.35551
    -0.34662    -0.21017    -0.17102    -0.16210    -0.13260    -0.11383
    -0.10163    -0.09019    -0.03299    -0.02964    -0.02693
 
 
 Beta HOMO energy:    -0.35274
 Beta LUMO energy:    -0.29932
 
  Beta Orbital energies (hartrees): 
   -10.35207   -10.35182   -10.35149   -10.35134   -10.34517   -10.34488
   -10.34483   -10.34468   -10.34207   -10.34168   -10.33968   -10.33965
   -10.33325   -10.33282   -10.31933   -10.31917   -10.31833   -10.31818
   -10.31693   -10.31671   -10.31561   -10.31545    -1.03676    -1.01201
    -0.98413    -0.97194    -0.92971    -0.92146    -0.90886    -0.89577
    -0.86347    -0.85902    -0.84618    -0.79327    -0.76916    -0.76775
    -0.74431    -0.73258    -0.72141    -0.70007    -0.67562    -0.65406
    -0.65129    -0.62954    -0.61199    -0.61143    -0.60143    -0.59072
    -0.57623    -0.57091    -0.56296    -0.55973    -0.55757    -0.55339
    -0.54913    -0.54297    -0.52444    -0.51953    -0.49995    -0.49214
    -0.49017    -0.48802    -0.48329    -0.46879    -0.46065    -0.45771
    -0.42868    -0.41229    -0.40788    -0.39083    -0.35285    -0.35274
    -0.29932    -0.19246    -0.16824    -0.15685    -0.12410    -0.10763
    -0.09194    -0.08341    -0.02867    -0.02702
 
  
  
    Unrestricted Spin Properties ...
    Sz*(Sz+1)      0.750
    <S**2> ...     0.764
  
  
  Peak memory usage:   5784 Mb
  
  end of program scf
   
 Time(scf)  user:      135.3  user+sys:      135.3  wallclock:       10.5
  
  start of program der1a
  
  Peak memory usage:   3823 Mb
  
  end of program der1a
   
 Time(der1a)  user:        3.7  user+sys:        3.7  wallclock:        0.8
  
  start of program rwr
  
  Peak memory usage:   3727 Mb
  
  end of program rwr
   
 Time(rwr)  user:       39.8  user+sys:       39.8  wallclock:        4.9
  
  start of program der1b
  
   
  forces (hartrees/bohr) : total     
   
 atom  label           x              y              z
 ---- --------   -------------  -------------  -------------
    1 C1         -4.933142E-04   4.955864E-05  -7.742704E-05
    2 C2         -4.736070E-04  -6.953871E-05   1.212535E-04
    3 C3         -1.076792E-04   5.395802E-05  -4.655792E-06
    4 C4          1.687276E-04  -4.821005E-04   1.089954E-04
    5 C5         -8.836402E-04   7.504219E-05  -3.682300E-04
    6 C6          9.691262E-04  -4.784031E-04  -8.441718E-04
    7 C7          1.943461E-03  -4.143671E-04   1.285174E-03
    8 C8          1.080009E-04   4.242633E-06  -2.180501E-04
    9 C9         -9.173337E-04   3.432067E-04  -1.165201E-03
   10 C10         5.569343E-04  -1.212288E-03   5.205501E-04
   11 C11        -5.272513E-04   1.646208E-03   9.889917E-04
   12 C12        -9.186254E-04  -1.414869E-03  -2.048049E-03
   13 C13        -6.250074E-04   1.520744E-03   1.075213E-03
   14 C14        -7.576070E-04  -1.264060E-03   1.008776E-04
   15 C15         8.545818E-04   9.795294E-04  -1.421508E-03
   16 C16        -1.333728E-03  -1.074900E-05   8.920306E-04
   17 C17         3.008100E-04  -6.602896E-04   7.174722E-04
   18 C18         2.128135E-03   4.855785E-04  -9.169949E-04
   19 C19         1.032708E-03   6.045894E-04   7.875731E-04
   20 C20        -1.195233E-03  -2.376841E-04   2.612491E-04
   21 C21         3.006796E-04   5.908189E-04   4.091590E-05
   22 C22        -1.570862E-04  -1.566333E-04  -1.450990E-05
   23 H23        -1.852998E-04   1.966218E-04  -2.112681E-05
   24 H24        -1.739082E-04  -1.906985E-04   1.220778E-05
   25 H25         9.845753E-05   9.991505E-05   3.788111E-05
   26 H26        -6.012240E-04  -2.568222E-04   3.035674E-04
   27 H27         3.213443E-04   2.483635E-04  -5.282097E-04
   28 H28         3.124018E-04   8.600218E-05   7.690060E-05
   29 H29        -3.572218E-05   2.485124E-04   6.108742E-04
   30 H30        -1.483022E-04   1.595102E-03   6.226109E-04
   31 H31         4.195313E-06  -1.759447E-03  -8.299115E-04
   32 H32        -1.306781E-04  -2.680904E-04  -1.778134E-04
   33 H33         3.399394E-04  -1.260346E-04   2.731517E-04
   34 H34         2.551266E-04   8.407768E-06   9.654352E-05
   35 H35        -5.591858E-04   2.766068E-04  -2.790158E-04
   36 H36         8.335693E-05  -9.063058E-05  -4.012750E-05
 -------------   -------------  -------------  -------------
     total       -4.464454E-04   2.030431E-05  -2.096825E-05
   
  Peak memory usage:   5740 Mb
  
  end of program der1b
   
 Time(der1b)  user:       52.0  user+sys:       52.0  wallclock:        4.3
  
  start of program geopt
  
 ----------------------------------------------------------------------------
  Geometry optimization step  3
  Total energy:      -846.38104670152 hartrees
 ----------------------------------------------------------------------------
  
  energy change:          -3.1225E-03 .  (  5.0000E-05 )
  gradient maximum:        3.4530E-03 .  (  4.5000E-04 )
  gradient rms:            1.0310E-03 .  (  3.0000E-04 )
  displacement maximum:    1.0907E-01 .  (  1.8000E-03 )
  displacement rms:        1.9810E-02 .  (  1.2000E-03 )
  
  predicted energy change:  -9.2641E-04
  step size:     0.22932
  trust radius:  0.30000
  
  molecular structure not yet converged...
  
  center of mass moved by:
     x:     1.7292E-03     y:     2.4711E-04     z:    -3.1721E-03
  
  new geometry: 
                                   angstroms
  atom               x                 y                 z
  C1           -5.1635638521     -0.7080629241     -0.0430084205 
  C2           -5.1652192855      0.6958622760      0.0451631989 
  C3           -3.9606646993      1.4004348310      0.0900363409 
  C4           -2.7250489244      0.7108595552      0.0476793629 
  C5           -1.4799364491      1.3842342691      0.0891328194 
  C6           -0.2419236785      0.7158985324      0.0489047252 
  C7            1.0155696886      1.4518535347      0.0608508362 
  C8            1.0557204956      2.8685635338      0.1238593733 
  C9            2.2515660707      3.5595933947      0.0722679420 
  C10           3.4692374057      2.8571873035     -0.0582182228 
  C11           3.4678112336      1.4769567270     -0.0999489759 
  C12           2.2588077208      0.7302673721     -0.0145095860 
  C13           2.2607231980     -0.7252406111     -0.0079659088 
  C14           3.4738169830     -1.4677077499      0.0568892738 
  C15           3.4792474711     -2.8482845050      0.0240175201 
  C16           2.2615455416     -3.5551232572     -0.0753764165 
  C17           1.0627394803     -2.8679534494     -0.1092533997 
  C18           1.0187684111     -1.4511835237     -0.0599736337 
  C19          -0.2405401299     -0.7179269800     -0.0417733912 
  C20          -1.4769299096     -1.3884315914     -0.0833781469 
  C21          -2.7235021734     -0.7177717688     -0.0413630547 
  C22          -3.9573650431     -1.4100392292     -0.0859403323 
  H23          -6.1037553839     -1.2460971383     -0.0779668090 
  H24          -6.1066888511      1.2317163990      0.0785492586 
  H25          -3.9644830852      2.4834094177      0.1586123281 
  H26          -1.5093051081      2.4645237084      0.1449277433 
  H27           0.1407407191      3.4383650097      0.2101759558 
  H28           2.2556207442      4.6428384912      0.1140239367 
  H29           4.4016566541      3.4050142194     -0.1306955787 
  H30           4.4105954387      0.9645463401     -0.2186734498 
  H31           4.4158091024     -0.9503309835      0.1595165208 
  H32           4.4155692541     -3.3917334062      0.0763601495 
  H33           2.2685264223     -4.6386387813     -0.1086289586 
  H34           0.1482784668     -3.4425554771     -0.1640357544 
  H35          -1.5038021024     -2.4685587072     -0.1442582610 
  H36          -3.9589590518     -2.4930078425     -0.1549093220 
   
  nuclear repulsion energy.......    1551.714553385 hartrees
  -------------------------------------------------
 /  end of geometry optimization iteration   3   /
 -------------------------------------------------
   
  Peak memory usage:   4726 Mb
  
  end of program geopt
   
 Time(geopt)  user:        6.7  user+sys:        6.7  wallclock:        0.6
  
  start of program onee
  
  smallest eigenvalue of S:    1.763E-04
  number of canonical orbitals.....          223
  Peak memory usage:   3812 Mb
  
  end of program onee
   
 Time(onee)  user:        3.3  user+sys:        3.3  wallclock:        0.8
  
  start of program probe
  
  Peak memory usage:   3727 Mb
  
  end of program probe
   
 Time(probe)  user:        3.4  user+sys:        3.4  wallclock:        0.7
  
  start of program grid
  
   grid     grid set  grid #  grid sym
  ------    --------  ------  --------
  coarse        0        0        1
  medium        2        1        1
  fine          0        0        1
  ultrafine     4        2        1
  charge       -1        3        1
  gradient      4        2        1
  density       0        0        1
  DFT-fine    -11        4        1
  DFT-med.    -10        5        1
  DFT-grad    -12        6        1
  DFT-der2      0        0        1
  DFT-cphf      0        0        1
  LMP2-enrg     4        2        1
  LMP2-grad     2        1        1
  DFT-cphf2     0        0        1
  PBF-dens      0        0        1
  plotting      0        0        1
  Rel-grad    -17        0        1
  
  number of gridpoints: 
     atom        C1       C2       C3       C4       C5       C6       C7
  grid # 1       97       97       97      101       96       99       99
  grid # 2      337      339      339      362      339      359      360
  grid # 3      231      230      234      253      229      254      254
  grid # 4     4304     4304     4304     4304     4304     4304     4304
  grid # 5     1192     1192     1192     1192     1192     1192     1192
  grid # 6     5226     5226     5226     5226     5226     5226     5226
   
  number of gridpoints: 
     atom        C8       C9      C10      C11      C12      C13      C14
  grid # 1       97       97       97       97       99       99       97
  grid # 2      339      338      338      339      361      362      340
  grid # 3      232      230      227      226      249      251      228
  grid # 4     4304     4304     4304     4304     4304     4304     4304
  grid # 5     1192     1192     1192     1192     1192     1192     1192
  grid # 6     5226     5226     5226     5226     5226     5226     5226
   
  number of gridpoints: 
     atom       C15      C16      C17      C18      C19      C20      C21
  grid # 1       97       97       97       99       99       95       99
  grid # 2      338      338      339      360      359      339      365
  grid # 3      229      229      230      255      252      229      252
  grid # 4     4304     4304     4304     4304     4304     4304     4304
  grid # 5     1192     1192     1192     1192     1192     1192     1192
  grid # 6     5226     5226     5226     5226     5226     5226     5226
   
  number of gridpoints: 
     atom       C22      H23      H24      H25      H26      H27      H28
  grid # 1       97      118      118      118      109      110      118
  grid # 2      339      451      451      446      423      429      451
  grid # 3      234     1332     1332     1148      624      845     1330
  grid # 4     4304     4304     4304     4304     4304     4304     4304
  grid # 5     1192     1192     1192     1192     1192     1192     1192
  grid # 6     5226     5226     5226     5226     5226     5226     5226
   
  number of gridpoints: 
     atom       H29      H30      H31      H32      H33      H34      H35
  grid # 1      118      109      109      118      118      110      109
  grid # 2      451      434      434      451      451      430      423
  grid # 3     1329      848      846     1327     1330      841      626
  grid # 4     4304     4304     4304     4304     4304     4304     4304
  grid # 5     1192     1192     1192     1192     1192     1192     1192
  grid # 6     5226     5226     5226     5226     5226     5226     5226
   
  number of gridpoints: 
     atom       H36    total
  grid # 1      118     3749
  grid # 2      446    13800
  grid # 3     1148    20144
  grid # 4     4304   154944
  grid # 5     1192    42912
  grid # 6     5226   188136
   
  Peak memory usage:   3770 Mb
  
  end of program grid
   
 Time(grid)  user:       17.2  user+sys:       17.2  wallclock:        2.0
  
  start of program rwr
  
  Peak memory usage:   3727 Mb
  
  end of program rwr
   
 Time(rwr)  user:       46.4  user+sys:       46.4  wallclock:        4.5
  
  start of program scf
  
 Energy computed with NOPS off.
  
       i  u  d  i  g                   
       t  p  i  c  r                                 RMS    maximum
       e  d  i  u  i                       energy  density   DIIS  
       r  t  s  t  d       total energy    change  change    error 
  
etot    1  N  N  2  U    -846.36882047661           6.3E-04  1.1E-02
etot    2  Y  Y  6  M    -846.38183411352  1.3E-02  1.1E-04  1.7E-03
etot    3  N  Y  2  U    -846.38196050928  1.3E-04  6.4E-05  1.8E-03
etot    4  Y  Y  6  M    -846.38203079872  7.0E-05  2.8E-05  6.1E-04
etot    5  N  Y  2  U    -846.38203836156  7.6E-06  1.0E-05  2.8E-04
etot    6  N  Y  2  U    -846.38204111430  2.8E-06  3.5E-06  6.5E-05
etot    7  N  N  2  U    -846.38204121524  1.0E-07  0.0E+00  0.0E+00
  
  
 Energy components, in hartrees:
   (A)  Nuclear repulsion............    1551.71455338487
   (E)  Total one-electron terms.....   -4204.23042864611
   (I)  Total two-electron terms.....    1806.13383404600
   (L)  Electronic energy............   -2398.09659460011  (E+I)
   (N)  Total energy.................    -846.38204121524  (A+L)
   (O)  Gas phase energy.............    -846.38204121524
  
                                 Total             Coulomb       Exchange+Corr.
 Total two-electron terms    1806.13383404600    1930.50600375989    -124.37216971389
   Hamiltonian  1........     927.13039947335     971.40213247885     -44.27173300550
   Hamiltonian  2........     915.18618935395     959.10387128104     -43.91768192709
  
 SCFE: SCF energy: UDFT(b3lyp)      -846.38204121524 hartrees   iterations:   7
  
 
 Alpha HOMO energy:    -0.34695
 Alpha LUMO energy:    -0.21098
 
  Alpha Orbital energies (hartrees): 
   -10.35583   -10.35575   -10.35187   -10.35154   -10.34639   -10.34631
   -10.34495   -10.34461   -10.34408   -10.34378   -10.34225   -10.34223
   -10.33437   -10.33395   -10.31827   -10.31820   -10.31775   -10.31769
   -10.31615   -10.31601   -10.31524   -10.31518    -1.03967    -1.01426
    -0.98620    -0.97477    -0.93532    -0.92402    -0.90928    -0.89876
    -0.86456    -0.86112    -0.85257    -0.79614    -0.77063    -0.76966
    -0.74731    -0.73443    -0.72288    -0.70242    -0.67673    -0.65567
    -0.65246    -0.63058    -0.61369    -0.61205    -0.60342    -0.59204
    -0.57651    -0.57227    -0.56423    -0.56125    -0.55887    -0.55565
    -0.55477    -0.54314    -0.52600    -0.52544    -0.50153    -0.49451
    -0.49132    -0.49054    -0.48509    -0.47680    -0.46141    -0.45785
    -0.44513    -0.42021    -0.41123    -0.40045    -0.36244    -0.35588
    -0.34695    -0.21098    -0.17021    -0.16180    -0.13298    -0.11358
    -0.10180    -0.08909    -0.03209    -0.02997    -0.02768
 
 
 Beta HOMO energy:    -0.35262
 Beta LUMO energy:    -0.29951
 
  Beta Orbital energies (hartrees): 
   -10.35257   -10.35237   -10.35207   -10.35192   -10.34558   -10.34524
   -10.34492   -10.34484   -10.34330   -10.34299   -10.34036   -10.34034
   -10.33390   -10.33348   -10.31854   -10.31847   -10.31713   -10.31705
   -10.31588   -10.31576   -10.31524   -10.31516    -1.03668    -1.01173
    -0.98395    -0.97185    -0.92962    -0.92184    -0.90818    -0.89573
    -0.86364    -0.85895    -0.84635    -0.79334    -0.76914    -0.76805
    -0.74479    -0.73246    -0.72150    -0.70021    -0.67560    -0.65441
    -0.65084    -0.62956    -0.61246    -0.61136    -0.60164    -0.59090
    -0.57601    -0.57094    -0.56277    -0.56006    -0.55648    -0.55396
    -0.54951    -0.54223    -0.52471    -0.51934    -0.50056    -0.49033
    -0.49016    -0.48799    -0.48436    -0.46939    -0.46079    -0.45683
    -0.42851    -0.41296    -0.40839    -0.39072    -0.35324    -0.35262
    -0.29951    -0.19306    -0.16751    -0.15666    -0.12438    -0.10736
    -0.09211    -0.08228    -0.02898    -0.02652
 
  
  
    Unrestricted Spin Properties ...
    Sz*(Sz+1)      0.750
    <S**2> ...     0.764
  
  
  Peak memory usage:   5782 Mb
  
  end of program scf
   
 Time(scf)  user:      130.0  user+sys:      130.0  wallclock:       10.1
  
  start of program der1a
  
  Peak memory usage:   3824 Mb
  
  end of program der1a
   
 Time(der1a)  user:        5.0  user+sys:        5.0  wallclock:        1.0
  
  start of program rwr
  
  Peak memory usage:   3728 Mb
  
  end of program rwr
   
 Time(rwr)  user:       36.3  user+sys:       36.3  wallclock:        4.3
  
  start of program der1b
  
   
  forces (hartrees/bohr) : total     
   
 atom  label           x              y              z
 ---- --------   -------------  -------------  -------------
    1 C1         -1.180676E-04  -1.567610E-04  -2.491669E-05
    2 C2         -1.015730E-04   1.420396E-04   5.246949E-05
    3 C3          2.348245E-04   5.253558E-04   2.786777E-05
    4 C4          1.467551E-04   1.578463E-04   1.935735E-04
    5 C5         -1.751215E-04   1.875940E-04  -1.185736E-04
    6 C6         -1.060569E-04   9.722124E-04  -9.867809E-04
    7 C7         -2.057806E-04  -1.521396E-04   1.535011E-04
    8 C8         -7.429052E-04  -6.640808E-04   1.081373E-04
    9 C9         -4.900440E-05   1.177094E-03  -3.672103E-04
   10 C10         2.841128E-04   3.320652E-04  -1.587711E-04
   11 C11        -1.577590E-03  -2.009058E-03   4.556690E-04
   12 C12         1.268266E-03  -9.306715E-04  -1.793666E-04
   13 C13         1.499167E-03   7.274663E-04  -7.500775E-05
   14 C14        -1.807332E-03   2.159271E-03   1.874096E-04
   15 C15         5.212066E-04   1.591298E-05  -3.683672E-04
   16 C16         4.358615E-05  -1.197277E-03   1.992695E-04
   17 C17        -9.420554E-04   3.736149E-04   2.696268E-04
   18 C18        -8.984815E-05   4.989012E-04  -5.847555E-05
   19 C19        -2.867442E-05  -1.035044E-03   9.334497E-04
   20 C20        -1.537258E-04  -3.273371E-04   1.489491E-04
   21 C21         1.638160E-04  -1.754109E-04  -2.056624E-04
   22 C22         1.562840E-04  -5.070509E-04  -3.392433E-05
   23 H23         5.503338E-05  -7.022212E-05   7.266679E-06
   24 H24         5.281635E-05   9.009780E-05  -1.303540E-05
   25 H25        -1.441275E-04   5.468073E-05  -2.870970E-05
   26 H26         5.839029E-05   1.444340E-04   3.007031E-04
   27 H27        -9.512441E-05   1.524837E-04  -2.349446E-04
   28 H28        -2.571660E-04  -3.646129E-05   2.691301E-04
   29 H29         2.686186E-04  -4.001047E-04   1.148966E-04
   30 H30         8.934621E-04  -8.141583E-04   4.395226E-04
   31 H31         9.740997E-04   6.499854E-04  -7.283490E-04
   32 H32         1.926172E-04   3.143173E-04   1.504903E-04
   33 H33        -3.403858E-04   2.453547E-05  -1.349256E-04
   34 H34        -1.259775E-04  -5.027633E-05  -5.316764E-05
   35 H35         2.915420E-05  -1.222242E-04  -2.813559E-04
   36 H36        -1.159514E-04  -4.270266E-05   3.373678E-05
 -------------   -------------  -------------  -------------
     total       -3.342577E-04   8.928511E-06  -5.875486E-06
   
  Peak memory usage:   5740 Mb
  
  end of program der1b
   
 Time(der1b)  user:       47.4  user+sys:       47.4  wallclock:        4.0
  
  start of program geopt
  
 ----------------------------------------------------------------------------
  Geometry optimization step  4
  Total energy:      -846.38204121524 hartrees
 ----------------------------------------------------------------------------
  
  energy change:          -9.9451E-04 .  (  5.0000E-05 )
  gradient maximum:        3.4107E-03 .  (  4.5000E-04 )
  gradient rms:            6.8873E-04 .  (  3.0000E-04 )
  displacement maximum:    7.0771E-02 .  (  1.8000E-03 )
  displacement rms:        1.2138E-02 .  (  1.2000E-03 )
  
  predicted energy change:  -2.5047E-04
  step size:     0.14051
  trust radius:  0.30000
  
  molecular structure not yet converged...
  
  center of mass moved by:
     x:    -7.9813E-04     y:     1.1937E-04     z:    -1.4604E-03
  
  new geometry: 
                                   angstroms
  atom               x                 y                 z
  C1           -5.1645835715     -0.7096165936     -0.0297835669 
  C2           -5.1662186137      0.6959340408      0.0414363912 
  C3           -3.9616935332      1.4018444185      0.0743740877 
  C4           -2.7262282105      0.7112819620      0.0376803764 
  C5           -1.4819239207      1.3857937927      0.0666398353 
  C6           -0.2429109828      0.7173148338      0.0320613878 
  C7            1.0156169361      1.4513002517      0.0425694557 
  C8            1.0546131876      2.8689620695      0.0849178939 
  C9            2.2528150013      3.5591364661      0.0701201333 
  C10           3.4739331954      2.8506370178      0.0045565633 
  C11           3.4699399723      1.4700156286     -0.0354408396 
  C12           2.2587909372      0.7279340914     -0.0067712173 
  C13           2.2607363538     -0.7223568310     -0.0196364794 
  C14           3.4744911943     -1.4609056899     -0.0036315993 
  C15           3.4819560665     -2.8418941550     -0.0309644717 
  C16           2.2619487527     -3.5541328303     -0.0710845302 
  C17           1.0618589295     -2.8674057825     -0.0764233119 
  C18           1.0191065973     -1.4496316509     -0.0482697820 
  C19          -0.2412386241     -0.7186001366     -0.0325086177 
  C20          -1.4786347283     -1.3901070188     -0.0659138197 
  C21          -2.7245691698     -0.7187867673     -0.0321994310 
  C22          -3.9583402910     -1.4125228777     -0.0661872406 
  H23          -6.1049411205     -1.2478219698     -0.0563768590 
  H24          -6.1078150784      1.2318260695      0.0704903062 
  H25          -3.9659663660      2.4857755237      0.1290422830 
  H26          -1.5136149988      2.4665016122      0.1140219879 
  H27           0.1380907262      3.4411555676      0.1279234709 
  H28           2.2571457565      4.6427935385      0.1002085687 
  H29           4.4120903784      3.3930107769     -0.0195758479 
  H30           4.4188377872      0.9570666998     -0.1008783519 
  H31           4.4221284065     -0.9439990511      0.0472758897 
  H32           4.4222053975     -3.3809507613     -0.0162552811 
  H33           2.2690941276     -4.6380722224     -0.0879874404 
  H34           0.1467289865     -3.4431712883     -0.0951596337 
  H35          -1.5074717336     -2.4706833022     -0.1179590846 
  H36          -3.9601100191     -2.4964225144     -0.1214016620 
   
  nuclear repulsion energy.......    1551.933598498 hartrees
  -------------------------------------------------
 /  end of geometry optimization iteration   4   /
 -------------------------------------------------
   
  Peak memory usage:   4726 Mb
  
  end of program geopt
   
 Time(geopt)  user:       11.0  user+sys:       11.0  wallclock:        0.8
  
  start of program onee
  
  smallest eigenvalue of S:    1.720E-04
  number of canonical orbitals.....          223
  Peak memory usage:   3812 Mb
  
  end of program onee
   
 Time(onee)  user:        3.4  user+sys:        3.4  wallclock:        0.7
  
  start of program probe
  
  Peak memory usage:   3726 Mb
  
  end of program probe
   
 Time(probe)  user:        3.4  user+sys:        3.4  wallclock:        0.5
  
  start of program grid
  
   grid     grid set  grid #  grid sym
  ------    --------  ------  --------
  coarse        0        0        1
  medium        2        1        1
  fine          0        0        1
  ultrafine     4        2        1
  charge       -1        3        1
  gradient      4        2        1
  density       0        0        1
  DFT-fine    -11        4        1
  DFT-med.    -10        5        1
  DFT-grad    -12        6        1
  DFT-der2      0        0        1
  DFT-cphf      0        0        1
  LMP2-enrg     4        2        1
  LMP2-grad     2        1        1
  DFT-cphf2     0        0        1
  PBF-dens      0        0        1
  plotting      0        0        1
  Rel-grad    -17        0        1
  
  number of gridpoints: 
     atom        C1       C2       C3       C4       C5       C6       C7
  grid # 1       97       97       97      101       95       99       99
  grid # 2      339      339      339      364      339      359      359
  grid # 3      232      231      234      252      230      254      251
  grid # 4     4304     4304     4304     4304     4304     4304     4304
  grid # 5     1192     1192     1192     1192     1192     1192     1192
  grid # 6     5226     5226     5226     5226     5226     5226     5226
   
  number of gridpoints: 
     atom        C8       C9      C10      C11      C12      C13      C14
  grid # 1       97       97       97       97      101      101       97
  grid # 2      339      338      338      339      366      367      339
  grid # 3      232      229      228      230      258      258      229
  grid # 4     4304     4304     4304     4304     4304     4304     4304
  grid # 5     1192     1192     1192     1192     1192     1192     1192
  grid # 6     5226     5226     5226     5226     5226     5226     5226
   
  number of gridpoints: 
     atom       C15      C16      C17      C18      C19      C20      C21
  grid # 1       97       97       97       99       99       95      101
  grid # 2      338      338      339      359      359      339      364
  grid # 3      228      228      230      251      253      229      251
  grid # 4     4304     4304     4304     4304     4304     4304     4304
  grid # 5     1192     1192     1192     1192     1192     1192     1192
  grid # 6     5226     5226     5226     5226     5226     5226     5226
   
  number of gridpoints: 
     atom       C22      H23      H24      H25      H26      H27      H28
  grid # 1       97      118      118      118      109      110      118
  grid # 2      339      451      451      446      422      430      451
  grid # 3      234     1332     1332     1148      628      841     1331
  grid # 4     4304     4304     4304     4304     4304     4304     4304
  grid # 5     1192     1192     1192     1192     1192     1192     1192
  grid # 6     5226     5226     5226     5226     5226     5226     5226
   
  number of gridpoints: 
     atom       H29      H30      H31      H32      H33      H34      H35
  grid # 1      118      110      110      118      118      110      108
  grid # 2      451      429      428      451      451      429      422
  grid # 3     1331      831      829     1332     1332      843      634
  grid # 4     4304     4304     4304     4304     4304     4304     4304
  grid # 5     1192     1192     1192     1192     1192     1192     1192
  grid # 6     5226     5226     5226     5226     5226     5226     5226
   
  number of gridpoints: 
     atom       H36    total
  grid # 1      118     3755
  grid # 2      446    13797
  grid # 3     1147    20143
  grid # 4     4304   154944
  grid # 5     1192    42912
  grid # 6     5226   188136
   
  Peak memory usage:   3770 Mb
  
  end of program grid
   
 Time(grid)  user:       19.6  user+sys:       19.6  wallclock:        2.1
  
  start of program rwr
  
  Peak memory usage:   3726 Mb
  
  end of program rwr
   
 Time(rwr)  user:       50.3  user+sys:       50.3  wallclock:        4.8
  
  start of program scf
  
 Energy computed with NOPS off.
  
       i  u  d  i  g                   
       t  p  i  c  r                                 RMS    maximum
       e  d  i  u  i                       energy  density   DIIS  
       r  t  s  t  d       total energy    change  change    error 
  
etot    1  N  N  2  U    -846.37704980470           4.1E-04  7.3E-03
etot    2  Y  Y  6  M    -846.38222834280  5.2E-03  8.7E-05  1.1E-03
etot    3  N  Y  2  U    -846.38225213479  2.4E-05  5.3E-05  1.6E-03
etot    4  Y  Y  6  M    -846.38231927725  6.7E-05  1.8E-05  2.8E-04
etot    5  N  Y  2  U    -846.38231992633  6.5E-07  8.7E-06  2.4E-04
etot    6  N  Y  2  U    -846.38232167359  1.7E-06  2.2E-06  3.8E-05
etot    7  N  N  2  U    -846.38232174108  6.7E-08  0.0E+00  0.0E+00
  
  
 Energy components, in hartrees:
   (A)  Nuclear repulsion............    1551.93359849814
   (E)  Total one-electron terms.....   -4204.66746596412
   (I)  Total two-electron terms.....    1806.35154572491
   (L)  Electronic energy............   -2398.31592023922  (E+I)
   (N)  Total energy.................    -846.38232174108  (A+L)
   (O)  Gas phase energy.............    -846.38232174108
  
                                 Total             Coulomb       Exchange+Corr.
 Total two-electron terms    1806.35154572491    1930.72432691886    -124.37278119396
   Hamiltonian  1........     927.23829373940     971.51021682198     -44.27192308258
   Hamiltonian  2........     915.29616737701     959.21411009688     -43.91794271987
  
 SCFE: SCF energy: UDFT(b3lyp)      -846.38232174108 hartrees   iterations:   7
  
 
 Alpha HOMO energy:    -0.34687
 Alpha LUMO energy:    -0.21109
 
  Alpha Orbital energies (hartrees): 
   -10.35582   -10.35580   -10.35195   -10.35163   -10.34636   -10.34634
   -10.34484   -10.34450   -10.34357   -10.34329   -10.34225   -10.34224
   -10.33443   -10.33402   -10.31850   -10.31848   -10.31788   -10.31785
   -10.31625   -10.31622   -10.31490   -10.31490    -1.03963    -1.01450
    -0.98609    -0.97471    -0.93524    -0.92397    -0.90996    -0.89859
    -0.86439    -0.86109    -0.85250    -0.79622    -0.77054    -0.76986
    -0.74740    -0.73479    -0.72250    -0.70251    -0.67686    -0.65569
    -0.65220    -0.63066    -0.61348    -0.61237    -0.60343    -0.59238
    -0.57649    -0.57223    -0.56401    -0.56138    -0.55792    -0.55613
    -0.55528    -0.54283    -0.52630    -0.52539    -0.50147    -0.49421
    -0.49110    -0.49089    -0.48529    -0.47703    -0.46160    -0.45748
    -0.44508    -0.42030    -0.41174    -0.40033    -0.36235    -0.35579
    -0.34687    -0.21109    -0.17000    -0.16181    -0.13314    -0.11337
    -0.10197    -0.08853    -0.03185    -0.03000    -0.02774
 
 
 Beta HOMO energy:    -0.35253
 Beta LUMO energy:    -0.29941
 
  Beta Orbital energies (hartrees): 
   -10.35264   -10.35245   -10.35209   -10.35197   -10.34548   -10.34513
   -10.34488   -10.34486   -10.34281   -10.34251   -10.34036   -10.34035
   -10.33397   -10.33355   -10.31861   -10.31858   -10.31741   -10.31739
   -10.31597   -10.31594   -10.31492   -10.31491    -1.03665    -1.01196
    -0.98383    -0.97180    -0.92952    -0.92180    -0.90886    -0.89557
    -0.86347    -0.85893    -0.84624    -0.79343    -0.76905    -0.76826
    -0.74489    -0.73281    -0.72112    -0.70030    -0.67575    -0.65443
    -0.65057    -0.62964    -0.61225    -0.61168    -0.60165    -0.59124
    -0.57601    -0.57091    -0.56252    -0.56020    -0.55572    -0.55444
    -0.54984    -0.54194    -0.52466    -0.51954    -0.50054    -0.49050
    -0.48997    -0.48770    -0.48473    -0.46962    -0.46101    -0.45648
    -0.42843    -0.41306    -0.40886    -0.39061    -0.35318    -0.35253
    -0.29941    -0.19315    -0.16733    -0.15666    -0.12456    -0.10711
    -0.09223    -0.08176    -0.02900    -0.02660
 
  
  
    Unrestricted Spin Properties ...
    Sz*(Sz+1)      0.750
    <S**2> ...     0.764
  
  
  Peak memory usage:   5784 Mb
  
  end of program scf
   
 Time(scf)  user:      146.0  user+sys:      146.0  wallclock:       11.3
  
  start of program der1a
  
  Peak memory usage:   3824 Mb
  
  end of program der1a
   
 Time(der1a)  user:        4.8  user+sys:        4.8  wallclock:        1.0
  
  start of program rwr
  
  Peak memory usage:   3727 Mb
  
  end of program rwr
   
 Time(rwr)  user:       34.0  user+sys:       34.0  wallclock:        4.4
  
  start of program der1b
  
   
  forces (hartrees/bohr) : total     
   
 atom  label           x              y              z
 ---- --------   -------------  -------------  -------------
    1 C1          1.156055E-04   1.223273E-04   3.339621E-05
    2 C2          8.123584E-05  -1.278878E-04  -2.775779E-05
    3 C3         -5.365989E-05   1.063963E-04   4.166388E-05
    4 C4         -1.149644E-04  -1.425259E-05   1.767729E-04
    5 C5          6.026882E-04   6.403828E-05  -5.669153E-05
    6 C6         -4.628117E-04   4.389141E-04  -6.050561E-04
    7 C7         -9.857169E-04   5.779634E-04  -3.514343E-04
    8 C8          4.592974E-05  -2.918769E-04   1.891337E-04
    9 C9          4.864566E-04  -2.332876E-04  -1.125910E-04
   10 C10        -3.516254E-04   7.658936E-04  -2.780810E-04
   11 C11         6.105639E-04   3.195869E-04  -1.493580E-04
   12 C12         4.957983E-05   1.021682E-03   7.504071E-04
   13 C13         9.799671E-05  -1.194125E-03  -6.753168E-04
   14 C14         4.448019E-04  -2.014864E-04   4.483932E-04
   15 C15        -2.833901E-04  -5.535862E-04   5.357020E-05
   16 C16         7.247045E-04   1.478885E-04   7.912008E-05
   17 C17        -1.596358E-04   2.221374E-04   4.647247E-05
   18 C18        -9.135529E-04  -3.659158E-04   2.648296E-04
   19 C19        -4.924750E-04  -5.637090E-04   5.515251E-04
   20 C20         6.754125E-04  -4.642636E-05   1.334506E-04
   21 C21        -1.050506E-04  -4.132527E-05  -2.399210E-04
   22 C22        -7.916764E-05  -4.568538E-05  -3.700992E-05
   23 H23         3.561167E-05  -6.646145E-05   1.731612E-05
   24 H24         2.973043E-05   6.987736E-05  -2.214856E-05
   25 H25        -9.037279E-05  -7.631987E-05  -4.494440E-05
   26 H26         2.917564E-04   1.166609E-04   1.387595E-04
   27 H27        -1.373873E-04   2.741122E-05  -6.071748E-05
[...]
  C11           3.4714177762      1.4717184052      0.0148781507 
  C12           2.2595940823      0.7291724084      0.0057859067 
  C13           2.2613489213     -0.7234724962     -0.0257543425 
  C14           3.4748930978     -1.4628596329     -0.0448040289 
  C15           3.4810841937     -2.8442547065     -0.0717883571 
  C16           2.2605213885     -3.5551233379     -0.0806082755 
  C17           1.0605199484     -2.8677374135     -0.0633586824 
  C18           1.0181647641     -1.4503268115     -0.0373758407 
  C19          -0.2415447531     -0.7190722411     -0.0196229115 
  C20          -1.4776176457     -1.3915208872     -0.0404044925 
  C21          -2.7239197908     -0.7195864281     -0.0192990535 
  C22          -3.9575953069     -1.4137747500     -0.0394182027 
  H23          -6.1036303156     -1.2500017978     -0.0307907117 
  H24          -6.1070055786      1.2326694553      0.0471019381 
  H25          -3.9666884707      2.4871896653      0.0828531886 
  H26          -1.5105721053      2.4685557550      0.0763681322 
  H27           0.1362898462      3.4429739399      0.0796232057 
  H28           2.2527087758      4.6442037731      0.0949304771 
  H29           4.4134638744      3.3937244604      0.0513864840 
  H30           4.4216959029      0.9577761357     -0.0046569919 
  H31           4.4239207195     -0.9466122897     -0.0359865816 
  H32           4.4218801873     -3.3823594068     -0.0842569392 
  H33           2.2641925031     -4.6388984851     -0.0994348469 
  H34           0.1448326112     -3.4431722898     -0.0673985048 
  H35          -1.5041662091     -2.4728688115     -0.0762536777 
  H36          -3.9598731530     -2.4984217625     -0.0731755381 
   
  nuclear repulsion energy.......    1551.797581505 hartrees
  -------------------------------------------------
 /  end of geometry optimization iteration   7   /
 -------------------------------------------------
   
  Peak memory usage:   4726 Mb
  
  end of program geopt
   
 Time(geopt)  user:        9.9  user+sys:        9.9  wallclock:        0.8
  
  start of program onee
  
  smallest eigenvalue of S:    1.711E-04
  number of canonical orbitals.....          223
  Peak memory usage:   3812 Mb
  
  end of program onee
   
 Time(onee)  user:        3.8  user+sys:        3.8  wallclock:        0.8
  
  start of program probe
  
  Peak memory usage:   3726 Mb
  
  end of program probe
   
 Time(probe)  user:        2.5  user+sys:        2.5  wallclock:        0.7
  
  start of program grid
  
   grid     grid set  grid #  grid sym
  ------    --------  ------  --------
  coarse        0        0        1
  medium        2        1        1
  fine          0        0        1
  ultrafine     4        2        1
  charge       -1        3        1
  gradient      4        2        1
  density       0        0        1
  DFT-fine    -11        4        1
  DFT-med.    -10        5        1
  DFT-grad    -12        6        1
  DFT-der2      0        0        1
  DFT-cphf      0        0        1
  LMP2-enrg     4        2        1
  LMP2-grad     2        1        1
  DFT-cphf2     0        0        1
  PBF-dens      0        0        1
  plotting      0        0        1
  Rel-grad    -17        0        1
  
  number of gridpoints: 
     atom        C1       C2       C3       C4       C5       C6       C7
  grid # 1       97       97       97      101       95       99      101
  grid # 2      337      337      339      362      339      359      361
  grid # 3      230      231      234      250      230      252      255
  grid # 4     4304     4304     4304     4304     4304     4304     4304
  grid # 5     1192     1192     1192     1192     1192     1192     1192
  grid # 6     5226     5226     5226     5226     5226     5226     5226
   
  number of gridpoints: 
     atom        C8       C9      C10      C11      C12      C13      C14
  grid # 1       97       97       97       97      101      101       97
  grid # 2      339      337      337      339      363      363      339
  grid # 3      232      230      230      232      254      254      232
  grid # 4     4304     4304     4304     4304     4304     4304     4304
  grid # 5     1192     1192     1192     1192     1192     1192     1192
  grid # 6     5226     5226     5226     5226     5226     5226     5226
   
  number of gridpoints: 
     atom       C15      C16      C17      C18      C19      C20      C21
  grid # 1       97       97       97      101       99       95      101
  grid # 2      337      337      339      361      359      339      362
  grid # 3      229      230      232      255      252      230      250
  grid # 4     4304     4304     4304     4304     4304     4304     4304
  grid # 5     1192     1192     1192     1192     1192     1192     1192
  grid # 6     5226     5226     5226     5226     5226     5226     5226
   
  number of gridpoints: 
     atom       C22      H23      H24      H25      H26      H27      H28
  grid # 1       97      118      118      118      109      110      118
  grid # 2      339      451      451      446      421      427      451
  grid # 3      234     1332     1332     1148      624      837     1333
  grid # 4     4304     4304     4304     4304     4304     4304     4304
  grid # 5     1192     1192     1192     1192     1192     1192     1192
  grid # 6     5226     5226     5226     5226     5226     5226     5226
   
  number of gridpoints: 
     atom       H29      H30      H31      H32      H33      H34      H35
  grid # 1      118      110      110      118      118      110      109
  grid # 2      451      427      427      451      451      427      420
  grid # 3     1333      828      829     1334     1334      836      626
  grid # 4     4304     4304     4304     4304     4304     4304     4304
  grid # 5     1192     1192     1192     1192     1192     1192     1192
  grid # 6     5226     5226     5226     5226     5226     5226     5226
   
  number of gridpoints: 
     atom       H36    total
  grid # 1      118     3760
  grid # 2      446    13771
  grid # 3     1147    20131
  grid # 4     4304   154944
  grid # 5     1192    42912
  grid # 6     5226   188136
   
  Peak memory usage:   3769 Mb
  
  end of program grid
   
 Time(grid)  user:       19.8  user+sys:       19.8  wallclock:        1.9
  
  start of program rwr
  
  Peak memory usage:   3727 Mb
  
  end of program rwr
   
 Time(rwr)  user:       46.8  user+sys:       46.8  wallclock:        4.2
  
  start of program scf
  
 Energy computed with NOPS off.
  
       i  u  d  i  g                   
       t  p  i  c  r                                 RMS    maximum
       e  d  i  u  i                       energy  density   DIIS  
       r  t  s  t  d       total energy    change  change    error 
  
etot    1  N  N  2  U    -846.38235423311           4.2E-05  7.2E-04
etot    2  N  Y  2  U    -846.38240153048  4.7E-05  8.2E-06  1.0E-04
etot    3  N  Y  2  U    -846.38240184699  3.2E-07  4.8E-06  1.4E-04
etot    4  N  N  2  U    -846.38240240215  5.6E-07  0.0E+00  0.0E+00
  
  
 Energy components, in hartrees:
   (A)  Nuclear repulsion............    1551.79758150540
   (E)  Total one-electron terms.....   -4204.39429972723
   (I)  Total two-electron terms.....    1806.21431581967
   (L)  Electronic energy............   -2398.17998390756  (E+I)
   (N)  Total energy.................    -846.38240240215  (A+L)
   (O)  Gas phase energy.............    -846.38240240215
  
                                 Total             Coulomb       Exchange+Corr.
 Total two-electron terms    1806.21431581967    1930.58604636758    -124.37173054790
   Hamiltonian  1........     927.16957154761     971.44111698559     -44.27154543798
   Hamiltonian  2........     915.22738408108     959.14492938199     -43.91754530091
  
 SCFE: SCF energy: UDFT(b3lyp)      -846.38240240215 hartrees   iterations:   4
  
 
 Alpha HOMO energy:    -0.34690
 Alpha LUMO energy:    -0.21102
 
  Alpha Orbital energies (hartrees): 
   -10.35584   -10.35581   -10.35195   -10.35162   -10.34641   -10.34639
   -10.34494   -10.34461   -10.34382   -10.34354   -10.34219   -10.34218
   -10.33427   -10.33386   -10.31849   -10.31847   -10.31787   -10.31787
   -10.31632   -10.31631   -10.31507   -10.31505    -1.03962    -1.01429
    -0.98613    -0.97473    -0.93536    -0.92385    -0.90975    -0.89873
    -0.86440    -0.86111    -0.85252    -0.79619    -0.77063    -0.76984
    -0.74731    -0.73464    -0.72255    -0.70258    -0.67691    -0.65573
    -0.65228    -0.63058    -0.61354    -0.61231    -0.60355    -0.59229
    -0.57659    -0.57230    -0.56406    -0.56135    -0.55727    -0.55678
    -0.55513    -0.54285    -0.52616    -0.52540    -0.50138    -0.49428
    -0.49112    -0.49105    -0.48526    -0.47710    -0.46152    -0.45755
    -0.44516    -0.42026    -0.41170    -0.40041    -0.36234    -0.35582
    -0.34690    -0.21102    -0.17006    -0.16181    -0.13312    -0.11336
    -0.10192    -0.08861    -0.03169    -0.03009    -0.02771
 
 
 Beta HOMO energy:    -0.35252
 Beta LUMO energy:    -0.29947
 
  Beta Orbital energies (hartrees): 
   -10.35264   -10.35245   -10.35211   -10.35198   -10.34558   -10.34524
   -10.34494   -10.34491   -10.34304   -10.34276   -10.34030   -10.34029
   -10.33381   -10.33339   -10.31861   -10.31860   -10.31739   -10.31737
   -10.31604   -10.31603   -10.31509   -10.31506    -1.03663    -1.01175
    -0.98388    -0.97182    -0.92966    -0.92167    -0.90865    -0.89570
    -0.86348    -0.85894    -0.84628    -0.79341    -0.76914    -0.76824
    -0.74480    -0.73266    -0.72116    -0.70038    -0.67579    -0.65447
    -0.65066    -0.62956    -0.61231    -0.61162    -0.60177    -0.59115
    -0.57610    -0.57097    -0.56258    -0.56016    -0.55560    -0.55429
    -0.54995    -0.54196    -0.52467    -0.51940    -0.50046    -0.49065
    -0.49000    -0.48773    -0.48472    -0.46967    -0.46094    -0.45656
    -0.42853    -0.41300    -0.40881    -0.39067    -0.35320    -0.35252
    -0.29947    -0.19311    -0.16738    -0.15666    -0.12453    -0.10711
    -0.09220    -0.08183    -0.02909    -0.02656
 
  
  
    Unrestricted Spin Properties ...
    Sz*(Sz+1)      0.750
    <S**2> ...     0.764
  
  
  Peak memory usage:   5783 Mb
  
  end of program scf
   
 Time(scf)  user:      100.7  user+sys:      100.7  wallclock:        7.8
  
  start of program der1a
  
  Peak memory usage:   3824 Mb
  
  end of program der1a
   
 Time(der1a)  user:        3.8  user+sys:        3.8  wallclock:        0.8
  
  start of program rwr
  
  Peak memory usage:   3732 Mb
  
  end of program rwr
   
 Time(rwr)  user:       34.0  user+sys:       34.0  wallclock:        4.2
  
  start of program der1b
  
   
  forces (hartrees/bohr) : total     
   
 atom  label           x              y              z
 ---- --------   -------------  -------------  -------------
    1 C1         -1.610728E-05  -4.293963E-05   1.003769E-06
    2 C2         -3.829081E-06   4.656368E-05  -9.176741E-06
    3 C3         -3.329980E-06   1.538758E-05   4.008656E-06
    4 C4          6.321816E-05   3.890310E-05  -5.172364E-05
    5 C5         -3.610265E-05  -3.306509E-05   3.893042E-05
    6 C6         -1.856317E-05  -1.294453E-06   9.895447E-05
    7 C7          2.816697E-05  -3.228484E-05  -8.570464E-05
    8 C8         -3.676446E-05   3.858587E-05  -1.681496E-06
    9 C9         -8.172546E-05   5.328537E-05  -3.390767E-06
   10 C10         4.957813E-05  -6.560757E-05   1.215425E-05
   11 C11        -4.008748E-05   4.954759E-05  -1.286666E-04
   12 C12        -7.580740E-05  -8.335128E-05   1.115485E-04
   13 C13        -7.553788E-05   9.324951E-05  -8.582285E-05
   14 C14        -2.711899E-05  -8.262674E-05   1.071407E-04
   15 C15         4.087504E-05   5.738571E-05   2.623810E-05
   16 C16        -8.569065E-05  -6.160409E-05   2.925543E-05
   17 C17        -4.299691E-05  -2.080886E-05   2.060156E-05
   18 C18         3.242271E-05   2.459961E-05   5.427941E-05
   19 C19        -8.135202E-06   1.884509E-05  -1.091241E-04
   20 C20        -4.165431E-05   3.051533E-05  -4.686492E-05
   21 C21         6.415810E-05  -3.042906E-05   5.767457E-05
   22 C22         6.936428E-06  -1.914455E-05   5.425673E-06
   23 H23        -3.303758E-05  -3.795070E-06  -6.045466E-06
   24 H24        -3.123642E-05   7.278490E-06   9.984266E-06
   25 H25        -1.538840E-05   2.133884E-05   3.910393E-06
   26 H26        -3.142331E-05  -2.869939E-06  -5.405270E-05
   27 H27         2.319911E-05  -1.632127E-05   2.807840E-05
   28 H28         2.306196E-05  -1.454152E-06   1.825831E-06
   29 H29        -8.445911E-06   2.650906E-05   2.294967E-05
   30 H30         3.601026E-05   4.659665E-05   3.706980E-05
   31 H31         3.729459E-05  -3.651203E-05  -3.552538E-05
   32 H32        -8.920352E-06  -2.728291E-05  -4.252782E-05
   33 H33         2.272335E-05  -8.672045E-06  -2.354144E-05
   34 H34         7.276749E-06  -1.265007E-06  -5.589389E-05
   35 H35        -3.131669E-05  -7.714173E-06   6.933333E-05
   36 H36        -1.432057E-05  -1.870306E-05  -7.501298E-06
 -------------   -------------  -------------  -------------
     total       -3.326186E-04  -2.915433E-05  -6.876545E-06
   
  Peak memory usage:   5740 Mb
  
  end of program der1b
   
 Time(der1b)  user:       47.3  user+sys:       47.3  wallclock:        3.8
  
  start of program geopt
  
 ----------------------------------------------------------------------------
  Geometry optimization step  8
  Total energy:      -846.38240240215 hartrees
 ----------------------------------------------------------------------------
  
  energy change:          -1.0717E-06 #  (  5.0000E-05 )
  gradient maximum:        1.3325E-04 *  (  4.5000E-04 )
  gradient rms:            4.6600E-05 #  (  3.0000E-04 )
  displacement maximum:    3.7635E-03 .  (  1.8000E-03 )
  displacement rms:        8.6383E-04 *  (  1.2000E-03 )
  
  predicted energy change:  -1.3300E-06
  step size:     0.01000
  trust radius:  0.30000
  
  ********************************************************
  **           Geometry optimization complete           **
  ********************************************************
  
  Checking the geometry optimization convergence pattern ...
  
  best                    worst
  ==0=====1=====2=====3=====4==
    ^                          
  
  Convergence category 0: monotonic convergence.
  Geometry optimization was OK.
  
  Number of imaginary frequencies:   0
  
  center of mass moved by:
     x:     0.0000E+00     y:     0.0000E+00     z:     0.0000E+00
  
  final geometry: 
                                   angstroms
  atom               x                 y                 z
  C1           -5.1637927736     -0.7104947004     -0.0153694715 
  C2           -5.1656820674      0.6958476851      0.0289156372 
  C3           -3.9613769391      1.4025537325      0.0491800017 
  C4           -2.7257955300      0.7118538283      0.0255039064 
  C5           -1.4812089239      1.3872043372      0.0424109117 
  C6           -0.2433580476      0.7180610793      0.0182781955 
  C7            1.0145595678      1.4526288683      0.0303739443 
  C8            1.0534014642      2.8700019524      0.0623528217 
  C9            2.2517200848      3.5605189918      0.0705738211 
  C10           3.4740776844      2.8530453516      0.0461883205 
  C11           3.4714177762      1.4717184052      0.0148781507 
  C12           2.2595940823      0.7291724084      0.0057859067 
  C13           2.2613489213     -0.7234724962     -0.0257543425 
  C14           3.4748930978     -1.4628596329     -0.0448040289 
  C15           3.4810841937     -2.8442547065     -0.0717883571 
  C16           2.2605213885     -3.5551233379     -0.0806082755 
  C17           1.0605199484     -2.8677374135     -0.0633586824 
  C18           1.0181647641     -1.4503268115     -0.0373758407 
  C19          -0.2415447531     -0.7190722411     -0.0196229115 
  C20          -1.4776176457     -1.3915208872     -0.0404044925 
  C21          -2.7239197908     -0.7195864281     -0.0192990535 
  C22          -3.9575953069     -1.4137747500     -0.0394182027 
  H23          -6.1036303156     -1.2500017978     -0.0307907117 
  H24          -6.1070055786      1.2326694553      0.0471019381 
  H25          -3.9666884707      2.4871896653      0.0828531886 
  H26          -1.5105721053      2.4685557550      0.0763681322 
  H27           0.1362898462      3.4429739399      0.0796232057 
  H28           2.2527087758      4.6442037731      0.0949304771 
  H29           4.4134638744      3.3937244604      0.0513864840 
  H30           4.4216959029      0.9577761357     -0.0046569919 
  H31           4.4239207195     -0.9466122897     -0.0359865816 
  H32           4.4218801873     -3.3823594068     -0.0842569392 
  H33           2.2641925031     -4.6388984851     -0.0994348469 
  H34           0.1448326112     -3.4431722898     -0.0673985048 
  H35          -1.5041662091     -2.4728688115     -0.0762536777 
  H36          -3.9598731530     -2.4984217625     -0.0731755381 
   
  principal moments of inertia:
        amu*angstrom^2:     1062.22734     2325.22032     3387.41909
                g*cm^2: 1.76386977E-37 3.86111871E-37 5.62494103E-37
   
  rotational constants:
               cm^(-1):      0.01587008      0.00724991      0.00497654
                   GHz:      0.47577293      0.21734672      0.14919294
   
  nuclear repulsion energy.......    1551.797581505 hartrees
  -------------------------------------------------
 /  end of geometry optimization iteration   8   /
 -------------------------------------------------
   
  Peak memory usage:   4821 Mb
  
  end of program geopt
   
 Time(geopt)  user:       10.8  user+sys:       10.8  wallclock:        1.1
  
  start of program ch
  
  Moments from quantum mechanical wavefunction:
  Dipole Moments  (Debye)
     X=    -2.4435     Y=    -0.0028     Z=     0.0049  Tot=     2.4435
  
  gridpoints used for charge fit        19076
    out of a possible maximum of        20131
  
   Electrostatic potential fitting constrained to reproduce
     total charge:                yes
     dipole moment:               yes
     traceless quadrupole moment: no 
     traceless octapole moment:   no 
  
  Atomic charges from electrostatic potential: 
   
 Atom       C1           C2           C3           C4           C5      
 Charge   -0.05637     -0.05823     -0.16738      0.14212     -0.14695
   
 Atom       C6           C7           C8           C9           C10     
 Charge    0.00385      0.12422     -0.19720     -0.05413     -0.06707
   
 Atom       C11          C12          C13          C14          C15     
 Charge   -0.15394      0.04545      0.04025     -0.14793     -0.07058
   
 Atom       C16          C17          C18          C19          C20     
 Charge   -0.05321     -0.19431      0.12261      0.00970     -0.15428
   
 Atom       C21          C22          H23          H24          H25     
 Charge    0.14539     -0.16861      0.14599      0.14619      0.16493
   
 Atom       H26          H27          H28          H29          H30     
 Charge    0.14523      0.14912      0.13853      0.14048      0.14422
   
 Atom       H31          H32          H33          H34          H35     
 Charge    0.14196      0.14120      0.13867      0.14599      0.14956
   
 Atom       H36     
 Charge    0.16453
  
  sum of atomic charges:     1.000000
   
 RMS Error   8.18E-04 hartrees
 
  
  Moments from electrostatic potential charges:
  Dipole Moments  (Debye)
     X=    -2.4435     Y=    -0.0028     Z=     0.0049  Tot=     2.4435
  
  Peak memory usage:   3814 Mb
  
  end of program ch
   
 Time(ch)  user:        7.5  user+sys:        7.5  wallclock:        3.7

 Total cpu seconds     user:    2447.819   user+sys:    2447.819
  
 Total elapsed time:    269 seconds

Job 1,2,3,4-Dibenzanthracene_1 completed on n086 at Sun Jan  8 22:28:37 2017
