Job 1,2-Benzanthracene_1 started on n032 at Sun Jan  8 22:24:08 2017
jobid: u01-0-5873024f

  +--------------------------------------------------------------------+
  |  Jaguar version 9.3, release  15                                   |
  |                                                                    |
  |  Copyright Schrodinger, Inc.                                       |
  |  All Rights Reserved.                                              |
  |                                                                    |
  |  The following have contributed to Jaguar (listed alphabetically): |
  |  Mike Beachy, Art Bochevarov, Dale Braden, Yixiang Cao,            |
  |  Chris Cortis, Rich Friesner, Bill Goddard, Hod Greeley,           |
  |  Tom Hughes, Leif Jacobson, Jean-Marc Langlois,                    |
  |  Daniel Mainz, Rob Murphy, Dean Philipp,                           |
  |  Tom Pollard, Murco Ringnalda, Mark Watson.                        |
  |                                                                    |
  |  Use of this program should be acknowledged in publications as:    |
  |                                                                    |
  |  Jaguar, version 9.3, Schrodinger, Inc., New York, NY, 2016.       |
  |                                                                    |
  |  A. D. Bochevarov, E. Harder, T. F. Hughes, J. R. Greenwood,       |
  |  D. A. Braden, D. M. Philipp, D. Rinaldo, M. D. Halls,             |
  |  J. Zhang, R. A. Friesner, "Jaguar: A High-Performance Quantum     |
  |  Chemistry Software Program with Strengths in Life and Materials   |
  |  Sciences", Int. J. Quantum Chem., 2013, 113(18), 2110-2142.       |
  +--------------------------------------------------------------------+
  
  start of program pre
  
  Job name: 1,2-Benzanthracene_1
  Executables used: /home/applications/Schrodinger_Suites_2016-3/jaguar-v9.3/bin/Linux-x86_64
  Temporary files : /scratch/Schrodinger_Suites/pbeni001/1,2-Benzanthracene_1#u01-0-5873024f
  Maestro file (input):  1,2-Benzanthracene_1.mae
  Maestro file (output): 1,2-Benzanthracene_1.01.mae
  
  basis set:             6-31g                           
  net molecular charge:    1
  multiplicity:            2
  
  Using up to  16 threads per process
  
  number of basis functions....          186
  
 Input geometry:
                                   angstroms
  atom               x                 y                 z
  C1            1.3356665000      0.5126887000     -0.3644870000 
  C2            2.0027772000     -0.4047812000     -1.1159838000 
  C3            3.0594632000      0.2531670000     -1.6917486000 
  C4            4.1381349000      0.5320264000     -0.7246785000 
  C5            3.9451506000      1.5761495000     -0.1673621000 
  C6            2.3456654000      1.2589037000      0.3821683000 
  C7            5.4186574000      1.9754192000     -0.6488180000 
  C8            6.6175242000      1.2189772000     -0.5462782000 
  C9            6.3914591000     -0.0120857000      0.0375028000 
  C10           5.0341024000     -0.3314378000     -0.0177585000 
  C11           4.5675531000     -1.0936344000      0.9925081000 
  C12           5.2864572000     -2.2086212000      1.1815624000 
  C13           4.5310103000     -3.3369287000      1.3883898000 
  C14           5.2100116000     -4.5129523000      1.5639068000 
  C15           6.6116681000     -4.5087680000      1.5549300000 
  C16           7.3551731000     -3.3427042000      1.3038997000 
  C17           6.6831277000     -2.1564513000      1.0453402000 
  C18           7.2717501000     -0.9481801000      0.6363501000 
  H19           0.4828605000      1.0135402000     -0.8009000000 
  H20           2.3803605000     -1.2813167000     -0.5461264000 
  H21           2.7015083000      1.2465718000     -2.1219057000 
  H22           2.3598302000      0.6137518000      1.2755075000 
  H23           5.4352239000      2.7509567000     -1.4606754000 
  H24           7.5890809000      1.4616676000     -0.9784916000 
  H25           3.5969393000     -0.9582996000      1.4345034000 
  H26           3.4437693000     -3.2985641000      1.3297571000 
  H27           4.6386235000     -5.4174471000      1.7286541000 
  H28           7.1325834000     -5.4392411000      1.7405498000 
  H29           8.4380233000     -3.3749665000      1.2624494000 
  H30           8.3366716000     -0.7779674000      0.7437527000 
   
  principal moments of inertia:
        amu*angstrom^2:      569.75932     1411.31143     1853.47304
                g*cm^2: 9.46107489E-38 2.34353747E-37 3.07776401E-37
   
  rotational constants:
               cm^(-1):      0.02958728      0.01194466      0.00909516
                   GHz:      0.88700437      0.35809177      0.27266596
   
  Molecular weight:     228.09 amu
   
  Stoichiometry: C18H12
  Molecular Point Group: C1      
  Point Group used: C1
  
 
Number of optimization coordinates:   109
Number of independent coordinates:    109
Number of non-redundant coordinates:   84
Number of frozen coordinates:           0
Number of harmonic constraints:         0
 
Number of geometric degrees of freedom:    84
Maximum geometric degrees of freedom:      84
 " " " " " excluding dummy atoms:          84
 
  nuclear repulsion energy.......    1185.081791307 hartrees
 
 Non-default options chosen:
   SCF calculation type: UDFT(b3lyp)                 
   UDFT=Becke_3_Parameter/HF+Slater+Becke88+VWN+LYP (B3LYP)
   Geometry will be optimized in redundant internal coordinates
   Electrostatic potential fit to point charges on atomic centers
   Electrostatic potential fitting constrained to reproduce
     total charge:                yes
     dipole moment:               yes
     traceless quadrupole moment: no 
     traceless octapole moment:   no 
  
 Temporary integer options set:
     73=  2
  
  Peak memory usage:   4802 Mb
  
  end of program pre
   
 Time(pre)  user:        8.7  user+sys:        8.7  wallclock:        2.1
  
  start of program onee
  
  smallest eigenvalue of S:    4.725E-04
  number of canonical orbitals.....          185
  Peak memory usage:   4838 Mb
  
  end of program onee
   
 Time(onee)  user:        4.2  user+sys:        4.2  wallclock:        0.8
  
  start of program hfig
  
  initial wavefunction generated automatically from atomic wavefunctions
  
  -------------------
  Alpha orbital space
  -------------------
 
  Irreducible     Total no   No of occupied orbitals 
  representation  orbitals   Shell_1  Shell_2    ...
  No Symm          185         60
  ------------------------
  Orbital occupation/shell    1.000
 
  ------------------
  Beta orbital space
  ------------------
 
  Irreducible     Total no   No of occupied orbitals 
  representation  orbitals   Shell_1  Shell_2    ...
  No Symm          185         59
  ------------------------
  Orbital occupation/shell    1.000
 
  
  
    Unrestricted Spin Properties ...
    Sz*(Sz+1) ..............     0.750
    <S**2> of initial guess      0.750
  
  
  Peak memory usage:   4756 Mb
  
  end of program hfig
   
 Time(hfig)  user:        5.3  user+sys:        5.3  wallclock:        0.8
  
  start of program probe
  
  Peak memory usage:   4756 Mb
  
  end of program probe
   
 Time(probe)  user:        2.2  user+sys:        2.2  wallclock:        0.4
  
  start of program grid
  
   grid     grid set  grid #  grid sym
  ------    --------  ------  --------
  coarse        0        0        1
  medium        2        1        1
  fine          0        0        1
  ultrafine     4        2        1
  charge       -1        3        1
  gradient      4        2        1
  density       0        0        1
  DFT-fine    -11        4        1
  DFT-med.    -10        5        1
  DFT-grad    -12        6        1
  DFT-der2      0        0        1
  DFT-cphf      0        0        1
  LMP2-enrg     4        2        1
  LMP2-grad     2        1        1
  DFT-cphf2     0        0        1
  PBF-dens      0        0        1
  plotting      0        0        1
  Rel-grad    -17        0        1
  
  number of gridpoints: 
     atom        C1       C2       C3       C4       C5       C6       C7
  grid # 1       95       94       95       93       98      100       96
  grid # 2      337      345      357      338      390      374      357
  grid # 3      149      297      356       42      291      333      215
  grid # 4     4304     4304     4304     4304     4304     4304     4304
  grid # 5     1192     1192     1192     1192     1192     1192     1192
  grid # 6     5226     5226     5226     5226     5226     5226     5226
   
  number of gridpoints: 
     atom        C8       C9      C10      C11      C12      C13      C14
  grid # 1       96      100       98       94       97       97       97
  grid # 2      337      356      351      319      347      335      334
  grid # 3      198      220      139      114      190      215      230
  grid # 4     4304     4304     4304     4304     4304     4304     4304
  grid # 5     1192     1192     1192     1192     1192     1192     1192
  grid # 6     5226     5226     5226     5226     5226     5226     5226
   
  number of gridpoints: 
     atom       C15      C16      C17      C18      H19      H20      H21
  grid # 1       97       97       98       96      116      111      111
  grid # 2      339      337      354      331      455      434      442
  grid # 3      230      233      234      222     1407      703      956
  grid # 4     4304     4304     4304     4304     4304     4304     4304
  grid # 5     1192     1192     1192     1192     1192     1192     1192
  grid # 6     5226     5226     5226     5226     5226     5226     5226
   
  number of gridpoints: 
     atom       H22      H23      H24      H25      H26      H27      H28
  grid # 1      107      116      117      107      114      118      118
  grid # 2      427      456      456      411      437      451      451
  grid # 3      824     1287     1315      475      919     1339     1329
  grid # 4     4304     4304     4304     4304     4304     4304     4304
  grid # 5     1192     1192     1192     1192     1192     1192     1192
  grid # 6     5226     5226     5226     5226     5226     5226     5226
   
  number of gridpoints: 
     atom       H29      H30    total
  grid # 1      118      117     3108
  grid # 2      445      450    11553
  grid # 3     1201     1160    16823
  grid # 4     4304     4304   129120
  grid # 5     1192     1192    35760
  grid # 6     5226     5226   156780
   
  Peak memory usage:   4784 Mb
  
  end of program grid
   
 Time(grid)  user:       16.2  user+sys:       16.2  wallclock:        1.7
  
  start of program rwr
  
  Peak memory usage:   4745 Mb
  
  end of program rwr
   
 Time(rwr)  user:       33.6  user+sys:       33.6  wallclock:        2.9
  
  start of program scf
  
 number of electrons..........        119
 number of alpha electrons....         60
 number of beta electrons.....         59
 number of alpha orbitals.....        185
 number of beta orbitals......        185
 number of alpha occupied orb..        60
 number of alpha virtual orb...       125
 number of beta occupied orb...        59
 number of beta virtual orb....       126
 SCF type: UDFT=Becke_3_Parameter/HF+Slater+Becke88+VWN+LYP (B3LYP)
 Energy computed with NOPS off.
  
       i  u  d  i  g                   
       t  p  i  c  r                                 RMS    maximum
       e  d  i  u  i                       energy  density   DIIS  
       r  t  s  t  d       total energy    change  change    error 
  
etot    1  N  N  5  M    -689.61919869882           1.5E-02  1.6E-01
etot    2  Y  Y  6  M    -690.19552804776  5.8E-01  1.9E-02  1.3E-01
etot    3  Y  Y  6  M    -686.61925503682 -3.6E+00  1.6E-02  2.7E-01
etot    4  N  Y  2  U    -691.76603886778  5.1E+00  1.4E-02  8.5E-02
etot    5  Y  Y  6  M    -691.61453200570 -1.5E-01  7.6E-03  7.8E-02
etot    6  N  Y  2  U    -691.98124175898  3.7E-01  3.5E-03  4.8E-02
etot    7  Y  Y  6  M    -692.05457088237  7.3E-02  2.1E-03  2.7E-02
etot    8  N  Y  2  U    -692.08302190927  2.8E-02  7.7E-04  1.2E-02
etot    9  Y  Y  6  M    -692.09367200206  1.1E-02  3.1E-04  1.9E-03
etot   10  N  Y  2  U    -692.09402279244  3.5E-04  1.5E-04  1.7E-03
etot   11  Y  Y  6  M    -692.09428756793  2.6E-04  1.6E-04  1.6E-03
etot   12  Y  Y  6  M    -692.09451493037  2.3E-04  9.4E-06  2.2E-03
etot   13  N  Y  2  U    -692.09450388451 -1.1E-05  1.1E-04  2.1E-03
etot   14  Y  Y  6  M    -692.09432736247 -1.8E-04  2.0E-04  1.9E-03
etot   15  Y  Y  6  M    -692.09467859834  3.5E-04  6.1E-04  2.4E-03
etot   16  N  Y  2  U    -692.09395170782 -7.3E-04  1.1E-04  6.8E-04
etot   17  Y  Y  6  M    -692.09391974496 -3.2E-05  1.5E-04  5.0E-04
etot   18  Y  Y  6  M    -692.09393114173  1.1E-05  1.5E-04  3.9E-04
etot   19  N  Y  2  U    -692.09394143524  1.0E-05  1.8E-05  1.8E-04
etot   20  N  Y  2  U    -692.09394123064 -2.0E-07  2.3E-05  1.2E-04
etot   21  N  Y  2  U    -692.09394072847 -5.0E-07  2.0E-05  1.1E-04
etot   22  N  Y  2  U    -692.09394162892  9.0E-07  7.0E-06  7.0E-05
etot   23  N  Y  2  U    -692.09394206442  4.4E-07  1.6E-05  5.1E-05
etot   24  N  Y  2  U    -692.09394250133  4.4E-07  8.6E-06  5.6E-05
etot   25  N  Y  2  U    -692.09394296496  4.6E-07  1.2E-05  5.3E-05
etot   26  N  Y  2  U    -692.09394354705  5.8E-07  5.7E-06  4.7E-05
etot   27  N  Y  2  U    -692.09394376350  2.2E-07  4.3E-06  3.7E-05
etot   28  N  N  2  U    -692.09394393290  1.7E-07  0.0E+00  0.0E+00
  
  
 Energy components, in hartrees:
   (A)  Nuclear repulsion............    1185.08179130667
   (E)  Total one-electron terms.....   -3266.50326287728
   (I)  Total two-electron terms.....    1389.32752763770
   (L)  Electronic energy............   -1877.17573523958  (E+I)
   (N)  Total energy.................    -692.09394393290  (A+L)
   (O)  Gas phase energy.............    -692.09394393290
  
                                 Total             Coulomb       Exchange+Corr.
 Total two-electron terms    1389.32752763770    1491.32831409640    -102.00078645870
   Hamiltonian  1........     714.54879091786     750.88777386693     -36.33898294907
   Hamiltonian  2........     704.45731038311     740.44054022948     -35.98322984637
  
 SCFE: SCF energy: UDFT(b3lyp)      -692.09394393290 hartrees   iterations:  28
  
 
 Alpha HOMO energy:    -0.34212
 Alpha LUMO energy:    -0.28776
 
  Alpha Orbital energies (hartrees): 
   -10.42936   -10.42309   -10.41408   -10.40686   -10.37351   -10.37294
   -10.37032   -10.36705   -10.36101   -10.35734   -10.35485   -10.35355
   -10.33941   -10.33585   -10.32730   -10.32549   -10.32205   -10.32157
    -1.14619    -1.06802    -1.04166    -0.99292    -0.96612    -0.93449
    -0.90404    -0.89370    -0.86907    -0.81893    -0.80331    -0.77364
    -0.76353    -0.73712    -0.73032    -0.71360    -0.67713    -0.66602
    -0.65817    -0.62894    -0.61919    -0.61293    -0.60633    -0.59711
    -0.59015    -0.58713    -0.56992    -0.56603    -0.56173    -0.54265
    -0.53922    -0.52163    -0.49646    -0.48988    -0.48205    -0.45503
    -0.43378    -0.40710    -0.38907    -0.37553    -0.36063    -0.34212
    -0.28776    -0.24847    -0.20058    -0.18606    -0.16370    -0.15657
    -0.12331    -0.10961    -0.06815    -0.04380
 
 
 Beta HOMO energy:    -0.34645
 Beta LUMO energy:    -0.27797
 
  Beta Orbital energies (hartrees): 
   -10.42877   -10.41923   -10.41422   -10.40631   -10.37389   -10.36907
   -10.36662   -10.36114   -10.36112   -10.35756   -10.35469   -10.35411
   -10.33926   -10.33590   -10.32757   -10.32557   -10.32207   -10.32163
    -1.14284    -1.06499    -1.03497    -0.98987    -0.96596    -0.93420
    -0.89894    -0.88896    -0.86871    -0.81377    -0.80215    -0.77196
    -0.76281    -0.73243    -0.72286    -0.71118    -0.67661    -0.66360
    -0.65324    -0.62703    -0.61852    -0.60834    -0.60220    -0.59295
    -0.58697    -0.58108    -0.56706    -0.56587    -0.56148    -0.54155
    -0.53679    -0.51952    -0.49573    -0.49003    -0.48150    -0.45155
    -0.43510    -0.40496    -0.37655    -0.37281    -0.34645    -0.27797
    -0.24802    -0.24064    -0.20156    -0.17267    -0.15961    -0.14634
    -0.12421    -0.10961    -0.06642
 
  
  
    Unrestricted Spin Properties ...
    Sz*(Sz+1)      0.750
    <S**2> ...     0.790
  
  
  Peak memory usage:   6747 Mb
  
  end of program scf
   
 Time(scf)  user:      299.9  user+sys:      299.9  wallclock:       21.2
  
  start of program der1a
  
  Peak memory usage:   4838 Mb
  
  end of program der1a
   
 Time(der1a)  user:        2.6  user+sys:        2.6  wallclock:        0.5
  
  start of program rwr
  
  Peak memory usage:   4745 Mb
  
  end of program rwr
   
 Time(rwr)  user:       27.9  user+sys:       27.9  wallclock:        3.3
  
  start of program der1b
  
   
  forces (hartrees/bohr) : total     
   
 atom  label           x              y              z
 ---- --------   -------------  -------------  -------------
    1 C1         -6.476541E-02   9.152573E-02   1.944209E-04
    2 C2          8.822390E-02  -1.037479E-01  -3.363797E-03
    3 C3         -6.870132E-03   3.318101E-02  -8.087621E-02
    4 C4          2.440877E-02  -2.404302E-01  -1.687523E-01
    5 C5         -5.096310E-02   2.191588E-01   1.414835E-01
    6 C6          8.949549E-03   1.593361E-03   4.886666E-02
    7 C7          2.366790E-02   5.039800E-02  -3.246318E-02
    8 C8         -2.775939E-02   3.800145E-02  -5.461450E-03
    9 C9          4.975221E-02  -5.640050E-02   9.639555E-03
   10 C10        -6.557798E-03   1.761360E-03   2.606367E-02
   11 C11        -5.402334E-02   3.184101E-02  -2.390683E-02
   12 C12         9.898706E-03  -2.322915E-02   2.666694E-02
   13 C13        -6.554163E-03  -2.760546E-02   1.173813E-02
   14 C14        -4.475660E-03  -1.628285E-02   3.381744E-03
   15 C15         1.846569E-02  -6.387004E-04   1.421999E-03
   16 C16         6.591498E-03  -2.927518E-02   5.387481E-03
   17 C17         1.035963E-02  -9.277861E-03   4.452157E-03
   18 C18        -7.728330E-03   2.375347E-02  -1.586694E-02
   19 H19        -1.193433E-02   8.394424E-03   6.914146E-03
   20 H20        -1.479965E-02  -4.920901E-03  -7.033667E-03
   21 H21         1.746458E-02  -2.245200E-02  -3.071842E-03
   22 H22         1.456798E-02   3.889146E-02   3.016703E-02
   23 H23        -8.400799E-03  -4.777355E-03   2.416049E-02
   24 H24        -8.322391E-03   1.301636E-02   2.269783E-03
   25 H25        -9.499481E-03  -5.964651E-03  -3.190103E-03
   26 H26         4.388623E-03  -1.680826E-04   5.679884E-03
   27 H27         4.637005E-03  -4.860461E-03  -8.234929E-04
   28 H28         1.969848E-03  -6.693115E-04  -5.090580E-04
   29 H29         3.143817E-04  -2.075421E-03   6.925408E-04
   30 H30        -3.164261E-05   1.281416E-03  -3.220552E-03
 -------------   -------------  -------------  -------------
     total        9.746740E-04   2.180215E-05   6.406965E-04
   
  Peak memory usage:   6740 Mb
  
  end of program der1b
   
 Time(der1b)  user:       32.4  user+sys:       32.4  wallclock:        2.5
  
  start of program geopt
  
 ----------------------------------------------------------------------------
  Geometry optimization step  1
  Total energy:      -692.09394393290 hartrees
 ----------------------------------------------------------------------------
  
  
  Level shifts adjusted to satisfy step-size constraints
   Step size:    0.3000374
   Cos(theta):   0.9897018
   Final level shift:  -1.1308300E+00
  
  gradient maximum:        3.1071E-01 .  (  4.5000E-04 )
  gradient rms:            4.6630E-02 .  (  3.0000E-04 )
  displacement maximum:    1.6651E-01 .  (  1.8000E-03 )
  displacement rms:        2.8734E-02 .  (  1.2000E-03 )
  
  predicted energy change:  -1.2316E-01
  step size:     0.29999
  trust radius:  0.30000
  
  molecular structure not yet converged...
  
  center of mass moved by:
     x:    -1.1279E-02     y:    -1.7193E-02     z:    -7.0472E-03
  
  new geometry: 
                                   angstroms
  atom               x                 y                 z
  C1            1.2913922896      0.7767134616     -0.4252283922 
  C2            1.9226560134     -0.2690274016     -1.1316152160 
  C3            3.0325352911      0.2732179752     -1.7552717597 
  C4            4.1033573817      0.5086213804     -0.7638053304 
  C5            3.9381878196      1.6420782787     -0.1763297786 
  C6            2.3210421324      1.4870682138      0.3526637404 
  C7            5.4186325420      2.0156365296     -0.6316214421 
  C8            6.5780186179      1.2139634973     -0.5204181916 
  C9            6.3358083689     -0.0533487269      0.0391339478 
  C10           4.9676070832     -0.3944596131     -0.0272567516 
  C11           4.5153252045     -1.1954694449      0.9850633293 
  C12           5.2875800078     -2.3156257289      1.1973409542 
  C13           4.6033904769     -3.5010896857      1.4338592997 
  C14           5.3575828164     -4.6401015425      1.6232687605 
  C15           6.7599913695     -4.5607858590      1.6008538792 
  C16           7.4312867980     -3.3620360464      1.3228161350 
  C17           6.6910622867     -2.2071439606      1.0485303164 
  C18           7.2334792028     -0.9724490059      0.6272030308 
  H19           0.4672953909      1.3104103424     -0.8864976639 
  H20           2.1774816907     -1.1581679542     -0.5182267740 
  H21           2.7678514452      1.2433697171     -2.2733921066 
  H22           2.2635010121      0.9608716907      1.3200063807 
  H23           5.4495418220      2.8025978837     -1.4211606856 
  H24           7.5580183787      1.4486723631     -0.9325741796 
  H25           3.5400846906     -1.0914260263      1.4309712231 
  H26           3.5169007566     -3.5354149138      1.3927384395 
  H27           4.8498801047     -5.5787837183      1.8076728173 
  H28           7.3342561513     -5.4578910581      1.7960666445 
  H29           8.5140477105     -3.3369051061      1.2720480747 
  H30           8.2920827801     -0.7706854376      0.7415507006 
   
  nuclear repulsion energy.......    1165.305007567 hartrees
  -------------------------------------------------
 /  end of geometry optimization iteration   1   /
 -------------------------------------------------
   
  Peak memory usage:   4725 Mb
  
  end of program geopt
   
 Time(geopt)  user:        6.2  user+sys:        6.2  wallclock:        0.7
  
  start of program onee
  
  smallest eigenvalue of S:    4.975E-04
  number of canonical orbitals.....          185
  Peak memory usage:   4838 Mb
  
  end of program onee
   
 Time(onee)  user:        2.1  user+sys:        2.1  wallclock:        0.4
  
  start of program probe
  
  Peak memory usage:   4756 Mb
  
  end of program probe
   
 Time(probe)  user:        1.3  user+sys:        1.3  wallclock:        0.4
  
  start of program grid
  
   grid     grid set  grid #  grid sym
  ------    --------  ------  --------
  coarse        0        0        1
  medium        2        1        1
  fine          0        0        1
  ultrafine     4        2        1
  charge       -1        3        1
  gradient      4        2        1
  density       0        0        1
  DFT-fine    -11        4        1
  DFT-med.    -10        5        1
  DFT-grad    -12        6        1
  DFT-der2      0        0        1
  DFT-cphf      0        0        1
  LMP2-enrg     4        2        1
  LMP2-grad     2        1        1
  DFT-cphf2     0        0        1
  PBF-dens      0        0        1
  plotting      0        0        1
  Rel-grad    -17        0        1
  
  number of gridpoints: 
     atom        C1       C2       C3       C4       C5       C6       C7
  grid # 1       96       95       96       95       98      100       96
  grid # 2      340      347      357      345      395      371      357
  grid # 3      134      287      354       51      270      314      216
  grid # 4     4304     4304     4304     4304     4304     4304     4304
  grid # 5     1192     1192     1192     1192     1192     1192     1192
  grid # 6     5226     5226     5226     5226     5226     5226     5226
   
  number of gridpoints: 
     atom        C8       C9      C10      C11      C12      C13      C14
  grid # 1       95      100       99       94      101       97       97
  grid # 2      337      355      360      327      354      335      336
  grid # 3      200      217      156      122      207      224      229
  grid # 4     4304     4304     4304     4304     4304     4304     4304
  grid # 5     1192     1192     1192     1192     1192     1192     1192
  grid # 6     5226     5226     5226     5226     5226     5226     5226
   
  number of gridpoints: 
     atom       C15      C16      C17      C18      H19      H20      H21
  grid # 1       97       97       99       96      116      113      111
  grid # 2      339      333      360      332      458      436      444
  grid # 3      230      233      238      223     1424      783      998
  grid # 4     4304     4304     4304     4304     4304     4304     4304
  grid # 5     1192     1192     1192     1192     1192     1192     1192
  grid # 6     5226     5226     5226     5226     5226     5226     5226
   
  number of gridpoints: 
     atom       H22      H23      H24      H25      H26      H27      H28
  grid # 1      110      116      117      109      115      118      118
  grid # 2      435      457      456      423      443      451      451
  grid # 3      972     1278     1301      549     1011     1339     1327
  grid # 4     4304     4304     4304     4304     4304     4304     4304
  grid # 5     1192     1192     1192     1192     1192     1192     1192
  grid # 6     5226     5226     5226     5226     5226     5226     5226
   
  number of gridpoints: 
     atom       H29      H30    total
  grid # 1      118      116     3125
  grid # 2      445      449    11628
  grid # 3     1190     1134    17211
  grid # 4     4304     4304   129120
  grid # 5     1192     1192    35760
  grid # 6     5226     5226   156780
   
  Peak memory usage:   4784 Mb
  
  end of program grid
   
 Time(grid)  user:       12.9  user+sys:       12.9  wallclock:        1.4
  
  start of program rwr
  
  Peak memory usage:   4745 Mb
  
  end of program rwr
   
 Time(rwr)  user:       32.8  user+sys:       32.8  wallclock:        3.0
  
  start of program scf
  
 Energy computed with NOPS off.
  
       i  u  d  i  g                   
       t  p  i  c  r                                 RMS    maximum
       e  d  i  u  i                       energy  density   DIIS  
       r  t  s  t  d       total energy    change  change    error 
  
etot    1  N  N  2  U    -692.17995921278           1.9E-03  8.7E-03
etot    2  Y  Y  6  M    -692.20688642752  2.7E-02  1.1E-03  5.3E-03
etot    3  N  Y  2  U    -692.20099928506 -5.9E-03  8.9E-04  1.2E-02
etot    4  N  Y  2  U    -692.20823133986  7.2E-03  4.0E-04  9.0E-03
etot    5  Y  Y  6  M    -692.21075805372  2.5E-03  1.4E-04  4.1E-03
etot    6  Y  Y  6  M    -692.21100487192  2.5E-04  1.1E-04  1.7E-03
etot    7  N  Y  2  U    -692.21119088964  1.9E-04  6.6E-05  2.1E-03
etot    8  Y  Y  6  M    -692.21130631566  1.2E-04  2.5E-04  2.2E-03
etot    9  Y  Y  6  M    -692.21093162521 -3.7E-04  3.0E-04  1.2E-03
etot   10  N  Y  2  U    -692.21070630366 -2.3E-04  1.2E-04  5.1E-04
etot   11  Y  Y  6  M    -692.21069763313 -8.7E-06  1.7E-05  2.8E-04
etot   12  N  Y  2  U    -692.21069324072 -4.4E-06  1.1E-05  1.3E-04
etot   13  N  Y  2  U    -692.21069386738  6.3E-07  5.9E-06  4.5E-05
etot   14  N  Y  2  U    -692.21069406330  2.0E-07  4.8E-06  2.5E-05
etot   15  N  N  2  U    -692.21069415576  9.2E-08  0.0E+00  0.0E+00
  
  
 Energy components, in hartrees:
   (A)  Nuclear repulsion............    1165.30500756668
   (E)  Total one-electron terms.....   -3227.78757609616
   (I)  Total two-electron terms.....    1370.27187437371
   (L)  Electronic energy............   -1857.51570172244  (E+I)
   (N)  Total energy.................    -692.21069415576  (A+L)
   (O)  Gas phase energy.............    -692.21069415576
  
                                 Total             Coulomb       Exchange+Corr.
 Total two-electron terms    1370.27187437371    1472.06349566135    -101.79162128764
   Hamiltonian  1........     704.86579680342     741.12689346617     -36.26109666275
   Hamiltonian  2........     695.02731995771     730.93660219518     -35.90928223747
  
 SCFE: SCF energy: UDFT(b3lyp)      -692.21069415576 hartrees   iterations:  15
  
 
 Alpha HOMO energy:    -0.34463
 Alpha LUMO energy:    -0.28657
 
  Alpha Orbital energies (hartrees): 
   -10.42842   -10.42342   -10.42303   -10.40294   -10.37508   -10.37438
   -10.37258   -10.36807   -10.36165   -10.36029   -10.35568   -10.35202
   -10.33929   -10.33860   -10.32594   -10.32551   -10.32110   -10.32002
    -1.11630    -1.05081    -1.02192    -0.97764    -0.95542    -0.92455
    -0.90326    -0.88887    -0.86380    -0.80476    -0.80076    -0.76434
    -0.75482    -0.73379    -0.72696    -0.70597    -0.67053    -0.65834
    -0.65048    -0.62051    -0.61173    -0.60969    -0.60174    -0.59362
    -0.58709    -0.58130    -0.56723    -0.56329    -0.55748    -0.54148
    -0.53639    -0.52042    -0.49387    -0.48559    -0.48058    -0.45093
    -0.42767    -0.40343    -0.38936    -0.37280    -0.35822    -0.34463
    -0.28657    -0.24531    -0.20053    -0.18805    -0.16991    -0.14601
    -0.12130    -0.11216    -0.06130    -0.04269
 
 
 Beta HOMO energy:    -0.34796
 Beta LUMO energy:    -0.27461
 
  Beta Orbital energies (hartrees): 
   -10.42479   -10.42300   -10.42217   -10.40250   -10.37395   -10.37306
   -10.36766   -10.36224   -10.36222   -10.36074   -10.35544   -10.35285
   -10.33913   -10.33859   -10.32630   -10.32566   -10.32125   -10.31999
    -1.11314    -1.04844    -1.01603    -0.97423    -0.95487    -0.92396
    -0.89714    -0.88467    -0.86389    -0.80112    -0.79826    -0.76267
    -0.75449    -0.72661    -0.72117    -0.70375    -0.67000    -0.65751
    -0.64536    -0.61874    -0.61086    -0.60600    -0.59651    -0.58923
    -0.58323    -0.57583    -0.56505    -0.56316    -0.55705    -0.53977
    -0.53500    -0.51919    -0.49324    -0.48587    -0.48016    -0.44710
    -0.43008    -0.40086    -0.37702    -0.37018    -0.34796    -0.27461
    -0.24443    -0.23494    -0.20192    -0.17870    -0.16941    -0.13136
    -0.12257    -0.11202    -0.05967
 
  
  
    Unrestricted Spin Properties ...
    Sz*(Sz+1)      0.750
    <S**2> ...     0.805
  
  
  Peak memory usage:   6747 Mb
  
  end of program scf
   
 Time(scf)  user:      169.7  user+sys:      169.7  wallclock:       12.1
  
  start of program der1a
  
  Peak memory usage:   4838 Mb
  
  end of program der1a
   
 Time(der1a)  user:        2.1  user+sys:        2.1  wallclock:        0.5
  
  start of program rwr
  
  Peak memory usage:   4745 Mb
  
  end of program rwr
   
 Time(rwr)  user:       24.0  user+sys:       24.0  wallclock:        3.1
  
  start of program der1b
  
   
  forces (hartrees/bohr) : total     
   
 atom  label           x              y              z
 ---- --------   -------------  -------------  -------------
    1 C1         -2.397259E-02   5.774523E-02  -1.297465E-02
    2 C2          6.025179E-02  -6.891047E-02   1.539573E-02
    3 C3         -1.218869E-03   3.119965E-02  -5.588050E-02
    4 C4         -1.544052E-02  -1.217563E-01  -8.618256E-02
    5 C5         -3.621125E-02   8.464017E-02   6.277436E-02
    6 C6          2.676960E-02  -2.958806E-03   2.822728E-02
    7 C7          1.495846E-02   3.467353E-02  -2.015563E-02
    8 C8         -2.860792E-02   2.275995E-02  -9.743967E-04
    9 C9          4.081239E-02  -4.019688E-02   4.332697E-03
   10 C10        -6.658784E-03   7.593289E-03   2.819071E-02
   11 C11        -3.484283E-02   1.000989E-02  -3.112647E-02
   12 C12        -2.537672E-04  -6.280983E-03   1.765588E-02
   13 C13         2.655272E-03  -1.662400E-02   9.568698E-03
   14 C14        -3.283608E-03  -8.706685E-03   2.561217E-03
   15 C15         1.270401E-02   4.060681E-04   1.137782E-03
   16 C16         3.767392E-03  -1.825675E-02   2.761187E-03
   17 C17         6.492477E-03  -1.052311E-02   5.670982E-03
   18 C18        -1.028716E-02   1.879612E-02  -1.188568E-02
   19 H19        -7.479060E-03   6.293858E-03   6.419642E-03
   20 H20        -1.170270E-02  -7.678927E-04  -6.236922E-03
   21 H21         1.359797E-02  -1.987831E-02   1.574053E-03
   22 H22         1.055837E-02   3.940063E-02   2.148407E-02
   23 H23        -4.991238E-03  -1.682039E-03   2.163459E-02
   24 H24        -6.476930E-03   1.146023E-02   1.393418E-03
   25 H25        -9.737031E-03  -5.659298E-03  -4.840514E-03
   26 H26         3.090818E-03   1.000635E-03   4.831586E-03
   27 H27         3.382139E-03  -3.138018E-03  -8.452103E-04
   28 H28         1.503528E-03  -4.128732E-04  -4.557969E-04
   29 H29         4.352633E-04  -1.290337E-03   5.167234E-04
   30 H30         4.586826E-04   1.354880E-03  -3.817495E-03
 -------------   -------------  -------------  -------------
     total        2.739043E-04   2.914449E-04   7.547717E-04
   
  Peak memory usage:   6740 Mb
  
  end of program der1b
   
 Time(der1b)  user:       31.9  user+sys:       31.9  wallclock:        2.4
  
  start of program geopt
  
 ----------------------------------------------------------------------------
  Geometry optimization step  2
  Total energy:      -692.21069415576 hartrees
 ----------------------------------------------------------------------------
  
  
  Level shifts adjusted to satisfy step-size constraints
   Step size:    0.3000772
   Cos(theta):   0.9650748
   Final level shift:  -7.0284626E-01
  
  energy change:          -1.1675E-01 .  (  5.0000E-05 )
  gradient maximum:        1.5090E-01 .  (  4.5000E-04 )
  gradient rms:            2.9952E-02 .  (  3.0000E-04 )
  displacement maximum:    9.7090E-02 .  (  1.8000E-03 )
  displacement rms:        2.8738E-02 .  (  1.2000E-03 )
  
  predicted energy change:  -7.6928E-02
  step size:     0.30003
  trust radius:  0.30000
  
  molecular structure not yet converged...
  
  center of mass moved by:
     x:    -1.1810E-02     y:    -2.2441E-02     z:    -1.5217E-02
  
  new geometry: 
                                   angstroms
  atom               x                 y                 z
  C1            1.3138788257      0.9932493166     -0.4432912929 
  C2            1.8832112703     -0.1621503507     -1.1069073175 
  C3            3.0045354610      0.2822901098     -1.8059786753 
  C4            4.0670646641      0.4799838496     -0.8136111636 
  C5            3.9400006091      1.6640928303     -0.2022277471 
  C6            2.3646062705      1.6785984486      0.3383081984 
  C7            5.4128103459      2.0470571792     -0.6123693644 
  C8            6.5327242516      1.2148653960     -0.4899492188 
  C9            6.2764435390     -0.0887464269      0.0340308270 
  C10           4.8995685704     -0.4561289534     -0.0577622727 
  C11           4.4453205213     -1.2963328133      0.9360831967 
  C12           5.2689877585     -2.4052977059      1.1900535561 
  C13           4.6597868104     -3.6374184978      1.4518515730 
  C14           5.4809196203     -4.7329442150      1.6728916172 
  C15           6.8798493586     -4.5819486915      1.6580710996 
  C16           7.4812852829     -3.3574766982      1.3565239187 
  C17           6.6785704373     -2.2427697609      1.0504682545 
  C18           7.1821822001     -0.9858243937      0.6208523817 
  H19           0.4967310892      1.5470871738     -0.8991919213 
  H20           2.0352599455     -1.0459505086     -0.4590833345 
  H21           2.7983312240      1.2119321404     -2.3937658167 
  H22           2.2711295817      1.3217549277      1.3765152778 
  H23           5.4527006588      2.8676743560     -1.3529148370 
  H24           7.5216805801      1.4592768308     -0.8684905503 
  H25           3.4526277309     -1.2289566795      1.3587954162 
  H26           3.5793749086     -3.7420554668      1.4135061493 
  H27           5.0340235774     -5.6993493270      1.8735111262 
  H28           7.5007177181     -5.4426047211      1.8763933226 
  H29           8.5616448812     -3.2740762831      1.3119705368 
  H30           8.2313973000     -0.7491636024      0.7556813834 
   
  nuclear repulsion energy.......    1154.386297110 hartrees
  -------------------------------------------------
 /  end of geometry optimization iteration   2   /
 -------------------------------------------------
   
  Peak memory usage:   4726 Mb
  
  end of program geopt
   
 Time(geopt)  user:        5.6  user+sys:        5.6  wallclock:        0.5
  
  start of program onee
  
  smallest eigenvalue of S:    5.112E-04
  number of canonical orbitals.....          186
  Peak memory usage:   4838 Mb
  
  end of program onee
   
 Time(onee)  user:        2.4  user+sys:        2.4  wallclock:        0.4
  
  start of program probe
  
  Peak memory usage:   4756 Mb
  
  end of program probe
   
 Time(probe)  user:        1.9  user+sys:        1.9  wallclock:        0.4
  
  start of program grid
  
   grid     grid set  grid #  grid sym
  ------    --------  ------  --------
  coarse        0        0        1
  medium        2        1        1
  fine          0        0        1
  ultrafine     4        2        1
  charge       -1        3        1
  gradient      4        2        1
  density       0        0        1
  DFT-fine    -11        4        1
  DFT-med.    -10        5        1
  DFT-grad    -12        6        1
  DFT-der2      0        0        1
  DFT-cphf      0        0        1
  LMP2-enrg     4        2        1
  LMP2-grad     2        1        1
  DFT-cphf2     0        0        1
  PBF-dens      0        0        1
  plotting      0        0        1
  Rel-grad    -17        0        1
  
  number of gridpoints: 
     atom        C1       C2       C3       C4       C5       C6       C7
  grid # 1       97       96       96       99      102      100       97
  grid # 2      345      350      358      357      388      368      347
  grid # 3      125      269      352       62      204      288      217
  grid # 4     4304     4304     4304     4304     4304     4304     4304
  grid # 5     1192     1192     1192     1192     1192     1192     1192
  grid # 6     5226     5226     5226     5226     5226     5226     5226
   
  number of gridpoints: 
     atom        C8       C9      C10      C11      C12      C13      C14
  grid # 1       95       98      100       94       96       97       97
  grid # 2      337      364      365      330      356      336      338
  grid # 3      193      214      169      136      219      228      229
  grid # 4     4304     4304     4304     4304     4304     4304     4304
  grid # 5     1192     1192     1192     1192     1192     1192     1192
  grid # 6     5226     5226     5226     5226     5226     5226     5226
   
  number of gridpoints: 
     atom       C15      C16      C17      C18      H19      H20      H21
  grid # 1       97       97       99       96      116      112      113
  grid # 2      339      338      358      336      461      439      446
  grid # 3      229      232      238      225     1432      818     1045
  grid # 4     4304     4304     4304     4304     4304     4304     4304
  grid # 5     1192     1192     1192     1192     1192     1192     1192
  grid # 6     5226     5226     5226     5226     5226     5226     5226
   
  number of gridpoints: 
     atom       H22      H23      H24      H25      H26      H27      H28
  grid # 1      111      117      117      110      115      118      118
  grid # 2      448      453      455      428      444      451      451
  grid # 3     1134     1294     1275      604     1083     1335     1325
  grid # 4     4304     4304     4304     4304     4304     4304     4304
  grid # 5     1192     1192     1192     1192     1192     1192     1192
  grid # 6     5226     5226     5226     5226     5226     5226     5226
   
  number of gridpoints: 
     atom       H29      H30    total
  grid # 1      118      116     3134
  grid # 2      445      447    11678
  grid # 3     1179     1108    17461
  grid # 4     4304     4304   129120
  grid # 5     1192     1192    35760
  grid # 6     5226     5226   156780
   
  Peak memory usage:   4784 Mb
  
  end of program grid
   
 Time(grid)  user:       12.5  user+sys:       12.5  wallclock:        1.4
  
  start of program rwr
  
  Peak memory usage:   4745 Mb
  
  end of program rwr
   
 Time(rwr)  user:       32.3  user+sys:       32.3  wallclock:        3.2
  
  start of program scf
  
 Energy computed with NOPS off.
  
       i  u  d  i  g                   
       t  p  i  c  r                                 RMS    maximum
       e  d  i  u  i                       energy  density   DIIS  
       r  t  s  t  d       total energy    change  change    error 
  
etot    1  N  N  2  U    -692.26316192746           2.7E-03  1.6E-02
etot    2  Y  Y  6  M    -692.28787662559  2.5E-02  9.1E-04  4.5E-03
etot    3  N  Y  2  U    -692.28566069139 -2.2E-03  5.7E-04  9.3E-03
etot    4  Y  Y  6  M    -692.29079622188  5.1E-03  1.8E-04  4.7E-03
etot    5  N  Y  2  U    -692.29119112466  3.9E-04  1.0E-04  3.5E-03
etot    6  Y  Y  6  M    -692.29136169931  1.7E-04  1.1E-04  1.6E-03
etot    7  Y  Y  6  M    -692.29154619465  1.8E-04  3.4E-06  2.2E-03
etot    8  N  N  2  U    -692.29155599016  9.8E-06  0.0E+00  0.0E+00
  
  
 Energy components, in hartrees:
   (A)  Nuclear repulsion............    1154.38629710993
   (E)  Total one-electron terms.....   -3206.54227823931
   (I)  Total two-electron terms.....    1359.86442513922
   (L)  Electronic energy............   -1846.67785310009  (E+I)
   (N)  Total energy.................    -692.29155599016  (A+L)
   (O)  Gas phase energy.............    -692.29155599016
  
                                 Total             Coulomb       Exchange+Corr.
 Total two-electron terms    1359.86442513922    1461.55781370156    -101.69338856234
   Hamiltonian  1........     699.71076528889     735.93694462541     -36.22617933652
   Hamiltonian  2........     689.74754711712     725.62086907615     -35.87332195903
  
 SCFE: SCF energy: UDFT(b3lyp)      -692.29155599016 hartrees   iterations:   8
  
 
 Alpha HOMO energy:    -0.34348
 Alpha LUMO energy:    -0.27758
 
  Alpha Orbital energies (hartrees): 
   -10.42797   -10.42547   -10.42113   -10.39267   -10.38570   -10.37988
   -10.36902   -10.36791   -10.36569   -10.35966   -10.35293   -10.34672
   -10.33816   -10.33634   -10.32265   -10.32163   -10.31796   -10.31608
    -1.10099    -1.03916    -1.00977    -0.96601    -0.94642    -0.91541
    -0.90684    -0.88533    -0.85901    -0.79764    -0.79672    -0.75746
    -0.74799    -0.73691    -0.72377    -0.70036    -0.66473    -0.65353
    -0.64740    -0.61791    -0.60929    -0.60486    -0.59955    -0.59373
    -0.58476    -0.57763    -0.56397    -0.55965    -0.55408    -0.54664
    -0.53177    -0.51850    -0.49020    -0.48035    -0.47761    -0.44738
    -0.42379    -0.40239    -0.39461    -0.36974    -0.35701    -0.34348
    -0.27758    -0.24098    -0.20604    -0.19110    -0.17025    -0.12107
    -0.11614    -0.10619    -0.05447    -0.03950
 
 
 Beta HOMO energy:    -0.34884
 Beta LUMO energy:    -0.27334
 
  Beta Orbital energies (hartrees): 
   -10.42811   -10.42217   -10.42065   -10.39250   -10.38487   -10.36967
   -10.36811   -10.36738   -10.36519   -10.35986   -10.35275   -10.34718
   -10.33817   -10.33619   -10.32268   -10.32184   -10.31806   -10.31601
    -1.09708    -1.03666    -1.00505    -0.96265    -0.94438    -0.91323
    -0.90101    -0.88361    -0.85857    -0.79633    -0.79183    -0.75573
    -0.74751    -0.72567    -0.72210    -0.69805    -0.66388    -0.65273
    -0.64265    -0.61531    -0.60488    -0.60372    -0.59571    -0.58824
    -0.58165    -0.57402    -0.56226    -0.55934    -0.55260    -0.54549
    -0.53061    -0.51753    -0.48920    -0.48012    -0.47697    -0.44314
    -0.42453    -0.39763    -0.38449    -0.36736    -0.34884    -0.27334
    -0.23975    -0.23316    -0.20008    -0.18463    -0.16761    -0.11908
    -0.11455    -0.09865    -0.05297
 
  
  
    Unrestricted Spin Properties ...
    Sz*(Sz+1)      0.750
    <S**2> ...     0.788
  
  
  Peak memory usage:   6747 Mb
  
  end of program scf
   
 Time(scf)  user:       80.8  user+sys:       80.8  wallclock:        6.1
  
  start of program der1a
  
  Peak memory usage:   4838 Mb
  
  end of program der1a
   
 Time(der1a)  user:        1.3  user+sys:        1.3  wallclock:        0.4
  
  start of program rwr
  
  Peak memory usage:   4745 Mb
  
  end of program rwr
   
 Time(rwr)  user:       23.7  user+sys:       23.7  wallclock:        3.2
  
  start of program der1b
  
   
  forces (hartrees/bohr) : total     
   
 atom  label           x              y              z
 ---- --------   -------------  -------------  -------------
    1 C1         -5.501381E-03   3.380769E-02  -1.206649E-02
    2 C2          4.225608E-02  -4.259303E-02   1.921546E-02
    3 C3         -1.972296E-03   2.580662E-02  -3.767925E-02
    4 C4         -3.228061E-02  -8.348939E-02  -4.911540E-02
    5 C5         -3.750212E-02   4.638570E-02   3.446676E-02
    6 C6          4.685347E-02  -1.243722E-02   7.723816E-03
    7 C7          6.787033E-03   2.569597E-02  -5.959549E-03
    8 C8         -2.588690E-02   1.181707E-02  -4.881791E-04
    9 C9          3.155803E-02  -2.658488E-02   1.079844E-03
   10 C10        -3.042540E-03   1.159666E-02   2.725205E-02
   11 C11        -2.057174E-02  -4.074581E-03  -3.293021E-02
   12 C12        -2.805172E-03   2.287827E-03   1.123374E-02
   13 C13         7.380087E-03  -1.061730E-02   8.526136E-03
   14 C14        -3.360819E-03  -3.405951E-03   1.711104E-03
   15 C15         7.867217E-03   4.782228E-04   1.003561E-03
   16 C16         1.175247E-03  -9.757847E-03   8.308871E-04
   17 C17         4.559881E-03  -9.542304E-03   5.997391E-03
   18 C18        -1.101848E-02   1.252777E-02  -6.983176E-03
   19 H19        -5.371655E-03   2.901018E-03   7.744333E-03
   20 H20        -7.611358E-03   1.189419E-03  -6.465989E-03
   21 H21         9.954170E-03  -1.503428E-02   3.076802E-03
   22 H22         5.551712E-03   3.960247E-02   1.105579E-02
   23 H23        -1.354834E-03   8.302357E-04   1.802826E-02
   24 H24        -4.409377E-03   8.681434E-03   6.741017E-04
   25 H25        -7.026682E-03  -6.172188E-03  -6.350539E-03
   26 H26         1.619811E-03   1.474037E-03   4.108852E-03
   27 H27         1.989592E-03  -1.645340E-03  -7.643767E-04
   28 H28         1.018769E-03  -6.372338E-05  -4.244711E-04
   29 H29         2.924713E-04  -5.081557E-04   3.088494E-04
   30 H30         7.015077E-04   1.035995E-03  -4.123681E-03
 -------------   -------------  -------------  -------------
     total       -1.508795E-04   1.919344E-04   6.864411E-04
   
  Peak memory usage:   6740 Mb
  
  end of program der1b
   
 Time(der1b)  user:       32.0  user+sys:       32.0  wallclock:        2.4
  
  start of program geopt
  
 ----------------------------------------------------------------------------
  Geometry optimization step  3
  Total energy:      -692.29155599016 hartrees
 ----------------------------------------------------------------------------
  
  
  Level shifts adjusted to satisfy step-size constraints
   Step size:    0.3002072
   Cos(theta):   0.9777164
   Final level shift:  -6.1525873E-01
  
  energy change:          -8.0862E-02 .  (  5.0000E-05 )
  gradient maximum:        9.1104E-02 .  (  4.5000E-04 )
  gradient rms:            2.2360E-02 .  (  3.0000E-04 )
  displacement maximum:    1.1546E-01 .  (  1.8000E-03 )
  displacement rms:        2.8751E-02 .  (  1.2000E-03 )
  
  predicted energy change:  -6.1986E-02
  step size:     0.30017
  trust radius:  0.30000
  
  molecular structure not yet converged...
  
  center of mass moved by:
     x:    -1.1878E-02     y:    -2.2651E-02     z:    -1.9021E-02
  
  new geometry: 
                                   angstroms
  atom               x                 y                 z
  C1            1.3683336524      1.1575273396     -0.4323056215 
  C2            1.8649974284     -0.0826433739     -1.0588325629 
  C3            2.9657069885      0.2804114019     -1.8471851861 
  C4            4.0302654153      0.4442162141     -0.8701068314 
  C5            3.9431493881      1.6741130055     -0.2389974687 
  C6            2.4476003889      1.8298237689      0.3209525433 
  C7            5.4056256181      2.0782589299     -0.5876867803 
  C8            6.4879855940      1.2193773879     -0.4526392371 
  C9            6.2181301551     -0.1167499095      0.0274772187 
  C10           4.8377072754     -0.5144620462     -0.0981495047 
  C11           4.3823962507     -1.3927737984      0.8689151314 
  C12           5.2492676871     -2.4790479826      1.1693690320 
  C13           4.7060728502     -3.7439827569      1.4528271961 
  C14           5.5773993722     -4.7954826377      1.7128749184 
  C15           6.9696162462     -4.5816879805      1.7166202926 
  C16           7.5117071994     -3.3385921777      1.3954318755 
  C17           6.6601277791     -2.2667433712      1.0513694185 
  C18           7.1283672417     -0.9914324378      0.6194181598 
  H19           0.5381872944      1.7208806661     -0.8531852698 
  H20           1.9522519990     -0.9505277192     -0.3855191096 
  H21           2.7838064645      1.1674400600     -2.4866032027 
  H22           2.3514512755      1.6582626953      1.4021756379 
  H23           5.4619357628      2.9362169292     -1.2721189255 
  H24           7.4891491546      1.4742983170     -0.7858675748 
  H25           3.3713235680     -1.3708187743      1.2565315070 
  H26           3.6342777036     -3.9079175579      1.4095748477 
  H27           5.1793027335     -5.7803724298      1.9271831728 
  H28           7.6269099710     -5.4071261167      1.9637709212 
  H29           8.5872994685     -3.2021302050      1.3649956722 
  H30           8.1655841276     -0.7200802212      0.7816293524 
   
  nuclear repulsion energy.......    1148.544792478 hartrees
  -------------------------------------------------
 /  end of geometry optimization iteration   3   /
 -------------------------------------------------
   
  Peak memory usage:   4726 Mb
  
  end of program geopt
   
 Time(geopt)  user:        5.0  user+sys:        5.0  wallclock:        0.4
  
  start of program onee
  
  smallest eigenvalue of S:    5.148E-04
  number of canonical orbitals.....          186
  Peak memory usage:   4838 Mb
  
  end of program onee
   
 Time(onee)  user:        1.7  user+sys:        1.7  wallclock:        0.4
  
  start of program probe
  
  Peak memory usage:   4756 Mb
  
  end of program probe
   
 Time(probe)  user:        1.7  user+sys:        1.7  wallclock:        0.4
  
  start of program grid
  
   grid     grid set  grid #  grid sym
  ------    --------  ------  --------
  coarse        0        0        1
  medium        2        1        1
  fine          0        0        1
  ultrafine     4        2        1
  charge       -1        3        1
  gradient      4        2        1
  density       0        0        1
  DFT-fine    -11        4        1
  DFT-med.    -10        5        1
  DFT-grad    -12        6        1
  DFT-der2      0        0        1
  DFT-cphf      0        0        1
  LMP2-enrg     4        2        1
  LMP2-grad     2        1        1
  DFT-cphf2     0        0        1
  PBF-dens      0        0        1
  plotting      0        0        1
  Rel-grad    -17        0        1
  
  number of gridpoints: 
     atom        C1       C2       C3       C4       C5       C6       C7
  grid # 1       96       97       98       98      102      100       97
  grid # 2      347      349      357      354      381      363      347
  grid # 3      112      262      350       70      143      252      209
  grid # 4     4304     4304     4304     4304     4304     4304     4304
  grid # 5     1192     1192     1192     1192     1192     1192     1192
  grid # 6     5226     5226     5226     5226     5226     5226     5226
   
  number of gridpoints: 
     atom        C8       C9      C10      C11      C12      C13      C14
  grid # 1       95      100      101       94      100       97       97
  grid # 2      338      363      365      334      363      338      339
  grid # 3      191      216      182      148      226      231      229
  grid # 4     4304     4304     4304     4304     4304     4304     4304
  grid # 5     1192     1192     1192     1192     1192     1192     1192
  grid # 6     5226     5226     5226     5226     5226     5226     5226
   
  number of gridpoints: 
     atom       C15      C16      C17      C18      H19      H20      H21
  grid # 1       97       97      100       96      117      111      114
  grid # 2      339      340      358      338      461      438      446
  grid # 3      229      233      239      226     1447      831     1108
  grid # 4     4304     4304     4304     4304     4304     4304     4304
  grid # 5     1192     1192     1192     1192     1192     1192     1192
  grid # 6     5226     5226     5226     5226     5226     5226     5226
   
  number of gridpoints: 
     atom       H22      H23      H24      H25      H26      H27      H28
  grid # 1      117      117      117      109      116      118      118
  grid # 2      453      455      453      431      444      451      451
  grid # 3     1261     1312     1257      639     1119     1333     1326
  grid # 4     4304     4304     4304     4304     4304     4304     4304
  grid # 5     1192     1192     1192     1192     1192     1192     1192
  grid # 6     5226     5226     5226     5226     5226     5226     5226
   
  number of gridpoints: 
     atom       H29      H30    total
  grid # 1      118      116     3150
  grid # 2      445      445    11686
  grid # 3     1175     1080    17636
  grid # 4     4304     4304   129120
  grid # 5     1192     1192    35760
  grid # 6     5226     5226   156780
   
  Peak memory usage:   4784 Mb
  
  end of program grid
   
 Time(grid)  user:       13.1  user+sys:       13.1  wallclock:        1.4
  
  start of program rwr
  
  Peak memory usage:   4745 Mb
  
  end of program rwr
   
 Time(rwr)  user:       32.0  user+sys:       32.0  wallclock:        3.0
  
  start of program scf
  
 Energy computed with NOPS off.
  
       i  u  d  i  g                   
       t  p  i  c  r                                 RMS    maximum
       e  d  i  u  i                       energy  density   DIIS  
       r  t  s  t  d       total energy    change  change    error 
  
etot    1  N  N  2  U    -692.32865125543           1.4E-03  7.7E-03
etot    2  Y  Y  6  M    -692.35218966775  2.4E-02  7.9E-04  3.8E-03
etot    3  N  Y  2  U    -692.34832504421 -3.9E-03  5.7E-04  1.1E-02
etot    4  Y  Y  6  M    -692.35421147616  5.9E-03  1.9E-04  4.5E-03
etot    5  N  Y  2  U    -692.35485814331  6.5E-04  1.2E-04  2.1E-03
etot    6  Y  Y  6  M    -692.35512989968  2.7E-04  1.4E-04  1.8E-03
etot    7  Y  Y  6  M    -692.35540519688  2.8E-04  1.6E-04  1.4E-03
etot    8  Y  Y  6  M    -692.35569712056  2.9E-04  4.9E-04  1.5E-03
etot    9  N  Y  2  U    -692.35640328986  7.1E-04  3.4E-04  1.2E-03
etot   10  Y  Y  6  M    -692.35659558208  1.9E-04  4.4E-05  6.3E-04
etot   11  N  Y  2  U    -692.35661755442  2.2E-05  3.1E-05  3.7E-04
etot   12  N  Y  2  U    -692.35662754455  1.0E-05  3.3E-05  3.3E-04
etot   13  N  Y  2  U    -692.35663975767  1.2E-05  7.3E-05  2.3E-04
etot   14  Y  Y  6  M    -692.35665435160  1.5E-05  4.8E-05  1.7E-04
etot   15  N  Y  2  U    -692.35666373287  9.4E-06  3.9E-05  1.4E-04
etot   16  N  Y  2  U    -692.35666649599  2.8E-06  3.4E-05  1.3E-04
etot   17  N  Y  2  U    -692.35666977188  3.3E-06  2.3E-05  6.4E-05
etot   18  N  Y  2  U    -692.35667059378  8.2E-07  8.5E-06  6.7E-05
etot   19  N  Y  2  U    -692.35667079297  2.0E-07  5.0E-06  3.1E-05
etot   20  N  N  2  U    -692.35667085305  6.0E-08  0.0E+00  0.0E+00
  
  
 Energy components, in hartrees:
   (A)  Nuclear repulsion............    1148.54479247847
   (E)  Total one-electron terms.....   -3195.31274368735
   (I)  Total two-electron terms.....    1354.41128035584
   (L)  Electronic energy............   -1840.90146333151  (E+I)
   (N)  Total energy.................    -692.35667085305  (A+L)
   (O)  Gas phase energy.............    -692.35667085305
  
                                 Total             Coulomb       Exchange+Corr.
 Total two-electron terms    1354.41128035584    1456.08525312126    -101.67397276542
   Hamiltonian  1........     697.29752239644     733.52188881425     -36.22436641781
   Hamiltonian  2........     686.70044741639     722.56336430701     -35.86291689062
  
 SCFE: SCF energy: UDFT(b3lyp)      -692.35667085305 hartrees   iterations:  20
  
 
 Alpha HOMO energy:    -0.34215
 Alpha LUMO energy:    -0.25600
 
  Alpha Orbital energies (hartrees): 
   -10.43261   -10.41771   -10.40921   -10.39332   -10.38616   -10.38387
   -10.38064   -10.36547   -10.36127   -10.35797   -10.34976   -10.34077
   -10.33544   -10.33175   -10.31855   -10.31631   -10.31322   -10.31113
    -1.09265    -1.03192    -1.00082    -0.95757    -0.93990    -0.91405
    -0.90556    -0.88145    -0.85509    -0.79509    -0.79074    -0.75172
    -0.74622    -0.73807    -0.72209    -0.69671    -0.66088    -0.65026
    -0.64588    -0.61768    -0.61037    -0.60221    -0.59858    -0.59233
    -0.58098    -0.57513    -0.56337    -0.55839    -0.55199    -0.54709
    -0.52720    -0.51463    -0.48644    -0.47699    -0.47235    -0.44446
    -0.42382    -0.40968    -0.39638    -0.36798    -0.35803    -0.34215
    -0.25600    -0.22776    -0.22408    -0.18951    -0.16701    -0.11446
    -0.11023    -0.07240    -0.04990    -0.03755
 
 
 Beta HOMO energy:    -0.34818
 Beta LUMO energy:    -0.26977
 
  Beta Orbital energies (hartrees): 
   -10.43313   -10.41787   -10.40871   -10.39518   -10.38195   -10.38173
   -10.37303   -10.36499   -10.35967   -10.35685   -10.35018   -10.33968
   -10.33557   -10.33187   -10.31818   -10.31598   -10.31313   -10.31099
    -1.08712    -1.02937    -0.99687    -0.95339    -0.93533    -0.91250
    -0.90249    -0.88032    -0.85315    -0.79105    -0.78896    -0.74989
    -0.74251    -0.73111    -0.72039    -0.69397    -0.65920    -0.64873
    -0.64158    -0.61462    -0.60585    -0.59891    -0.59741    -0.58895
    -0.57853    -0.57222    -0.56239    -0.55718    -0.55035    -0.54534
    -0.52395    -0.51324    -0.48482    -0.47495    -0.47171    -0.44246
    -0.41787    -0.40292    -0.39434    -0.36389    -0.34818    -0.26977
    -0.23789    -0.23412    -0.20006    -0.18105    -0.16122    -0.11199
    -0.10805    -0.06642    -0.04792
 
  
  
    Unrestricted Spin Properties ...
    Sz*(Sz+1)      0.750
    <S**2> ...     1.020
  
  
  Peak memory usage:   6747 Mb
  
  end of program scf
   
 Time(scf)  user:      235.3  user+sys:      235.3  wallclock:       16.7
  
  start of program der1a
  
  Peak memory usage:   4838 Mb
  
  end of program der1a
   
 Time(der1a)  user:        2.4  user+sys:        2.4  wallclock:        0.5
  
  start of program rwr
  
  Peak memory usage:   4745 Mb
  
  end of program rwr
   
 Time(rwr)  user:       25.3  user+sys:       25.3  wallclock:        3.2
  
  start of program der1b
  
   
  forces (hartrees/bohr) : total     
   
 atom  label           x              y              z
 ---- --------   -------------  -------------  -------------
    1 C1          5.643373E-04   1.998739E-02  -7.941308E-03
    2 C2          3.129576E-02  -2.226814E-02   1.359535E-02
    3 C3         -5.016870E-03   2.121585E-02  -2.127776E-02
    4 C4         -3.539081E-02  -6.155736E-02  -1.605989E-02
    5 C5         -2.510917E-02   2.686438E-02   1.287074E-02
    6 C6          5.032450E-02  -1.914116E-02  -8.850653E-03
    7 C7         -3.415854E-03   1.919740E-02   2.556723E-03
    8 C8         -2.067738E-02   4.143097E-03  -2.023719E-03
    9 C9          2.377969E-02  -1.476981E-02  -1.158144E-03
   10 C10        -6.020536E-04   1.591839E-02   2.311921E-02
   11 C11        -1.083662E-02  -1.282596E-02  -3.267998E-02
   12 C12        -2.922516E-03   6.379643E-03   6.915353E-03
   13 C13         8.007597E-03  -6.548309E-03   8.149045E-03
   14 C14        -3.302677E-03  -8.248632E-04   1.058779E-03
   15 C15         4.846454E-03   2.454086E-04   9.895159E-04
   16 C16         2.202615E-04  -5.345973E-03  -6.105261E-04
   17 C17         3.101270E-03  -7.501792E-03   6.286312E-03
   18 C18        -1.006377E-02   7.393986E-03  -2.889425E-03
   19 H19        -7.275700E-03  -9.044851E-04   1.117227E-02
   20 H20        -4.924065E-03   1.392816E-03  -6.032325E-03
   21 H21         7.798112E-03  -9.977607E-03   2.864982E-03
   22 H22         1.334288E-03   3.540746E-02   2.872687E-03
   23 H23         2.367340E-03   2.821221E-03   1.589056E-02
   24 H24        -2.770873E-03   6.142002E-03   3.880199E-04
   25 H25        -5.031165E-03  -6.454746E-03  -7.039998E-03
   26 H26         5.036556E-04   1.636759E-03   3.472872E-03
   27 H27         9.850275E-04  -9.483675E-04  -6.294243E-04
   28 H28         8.097030E-04   5.607051E-05  -3.613345E-04
   29 H29         2.477627E-04  -1.554848E-04   2.143675E-04
   30 H30         8.725372E-04   7.572307E-04  -4.307879E-03
 -------------   -------------  -------------  -------------
     total       -2.812140E-04   3.350555E-04   5.544212E-04
   
  Peak memory usage:   6740 Mb
  
  end of program der1b
   
 Time(der1b)  user:       31.2  user+sys:       31.2  wallclock:        2.4
  
  start of program geopt
  
 ----------------------------------------------------------------------------
  Geometry optimization step  4
  Total energy:      -692.35667085305 hartrees
 ----------------------------------------------------------------------------
  
  
  Level shifts adjusted to satisfy step-size constraints
   Step size:    0.3002397
   Cos(theta):   0.9847053
   Final level shift:  -4.8621340E-01
  
  energy change:          -6.5115E-02 .  (  5.0000E-05 )
  gradient maximum:        6.4686E-02 .  (  4.5000E-04 )
  gradient rms:            1.7231E-02 .  (  3.0000E-04 )
  displacement maximum:    1.1323E-01 .  (  1.8000E-03 )
  displacement rms:        2.8755E-02 .  (  1.2000E-03 )
  
  predicted energy change:  -4.8507E-02
  step size:     0.30021
  trust radius:  0.30000
  
  molecular structure not yet converged...
  
  center of mass moved by:
     x:    -1.1968E-02     y:    -2.2458E-02     z:    -1.9543E-02
  
  new geometry: 
                                   angstroms
  atom               x                 y                 z
  C1            1.4225414765      1.3057765128     -0.4205105968 
  C2            1.8492435256      0.0001155840     -1.0083679388 
  C3            2.9180659449      0.2862467018     -1.8763352212 
  C4            3.9910375398      0.4043771047     -0.9169704192 
  C5            3.9478242670      1.6749922463     -0.2782292061 
  C6            2.5383784631      1.9588088698      0.2862893873 
  C7            5.3941952268      2.1047666386     -0.5569661076 
  C8            6.4425395129      1.2223731126     -0.4114714146 
  C9            6.1617131479     -0.1417371858      0.0203981787 
  C10           4.7807927338     -0.5719709625     -0.1387444474 
  C11           4.3305031716     -1.4927538929      0.7948252902 
  C12           5.2359091946     -2.5481365897      1.1441348089 
  C13           4.7531531112     -3.8370248059      1.4520635973 
  C14           5.6647991541     -4.8441200207      1.7539817658 
  C15           7.0481242177     -4.5728182494      1.7766544523 
  C16           7.5369682470     -3.3163396460      1.4337293026 
  C17           6.6443720690     -2.2884187408      1.0498900814 
  C18           7.0768759471     -0.9966948630      0.6165365510 
  H19           0.5652853050      1.8724388226     -0.7785471733 
  H20           1.8917446253     -0.8483986471     -0.3137323214 
  H21           2.7543328890      1.1343615206     -2.5574922187 
  H22           2.4578117042      1.9691195706      1.3796393384 
  H23           5.4773134786      3.0011718963     -1.1772354014 
  H24           7.4560977046      1.4871481568     -0.6929020789 
  H25           3.3028793787     -1.5270030109      1.1394967348 
  H26           3.6913331424     -4.0528138542      1.4039110884 
  H27           5.3085591576     -5.8417307755      1.9840324536 
  H28           7.7362320687     -5.3628961125      2.0547834613 
  H29           8.6057551994     -3.1311419963      1.4176410656 
  H30           8.1015468273     -0.6929223524      0.8016562223 
   
  nuclear repulsion energy.......    1144.566282201 hartrees
  -------------------------------------------------
 /  end of geometry optimization iteration   4   /
 -------------------------------------------------
   
  Peak memory usage:   4726 Mb
  
  end of program geopt
   
 Time(geopt)  user:        6.2  user+sys:        6.2  wallclock:        0.5
  
  start of program onee
  
  smallest eigenvalue of S:    5.137E-04
  number of canonical orbitals.....          186
  Peak memory usage:   4838 Mb
  
  end of program onee
   
 Time(onee)  user:        2.7  user+sys:        2.7  wallclock:        0.5
  
  start of program probe
  
  Peak memory usage:   4756 Mb
  
  end of program probe
   
 Time(probe)  user:        1.8  user+sys:        1.8  wallclock:        0.4
  
  start of program grid
  
   grid     grid set  grid #  grid sym
  ------    --------  ------  --------
  coarse        0        0        1
  medium        2        1        1
  fine          0        0        1
  ultrafine     4        2        1
  charge       -1        3        1
  gradient      4        2        1
  density       0        0        1
  DFT-fine    -11        4        1
  DFT-med.    -10        5        1
  DFT-grad    -12        6        1
  DFT-der2      0        0        1
  DFT-cphf      0        0        1
  LMP2-enrg     4        2        1
  LMP2-grad     2        1        1
  DFT-cphf2     0        0        1
  PBF-dens      0        0        1
  plotting      0        0        1
  Rel-grad    -17        0        1
  
  number of gridpoints: 
     atom        C1       C2       C3       C4       C5       C6       C7
  grid # 1       98       97       98       99      101       97       96
  grid # 2      345      347      355      366      373      357      345
  grid # 3       98      252      346       83      100      221      196
  grid # 4     4304     4304     4304     4304     4304     4304     4304
  grid # 5     1192     1192     1192     1192     1192     1192     1192
  grid # 6     5226     5226     5226     5226     5226     5226     5226
   
  number of gridpoints: 
     atom        C8       C9      C10      C11      C12      C13      C14
  grid # 1       95      101      100       94      100       97       97
  grid # 2      335      363      368      336      366      339      339
  grid # 3      193      221      192      161      231      235      230
  grid # 4     4304     4304     4304     4304     4304     4304     4304
  grid # 5     1192     1192     1192     1192     1192     1192     1192
  grid # 6     5226     5226     5226     5226     5226     5226     5226
   
  number of gridpoints: 
     atom       C15      C16      C17      C18      H19      H20      H21
  grid # 1       97       97       99       96      117      112      117
  grid # 2      339      340      361      339      462      432      447
  grid # 3      228      233      243      227     1459      826     1172
  grid # 4     4304     4304     4304     4304     4304     4304     4304
  grid # 5     1192     1192     1192     1192     1192     1192     1192
  grid # 6     5226     5226     5226     5226     5226     5226     5226
   
  number of gridpoints: 
     atom       H22      H23      H24      H25      H26      H27      H28
  grid # 1      117      117      117      108      116      118      118
  grid # 2      457      457      451      429      446      451      451
  grid # 3     1349     1336     1235      650     1143     1333     1328
  grid # 4     4304     4304     4304     4304     4304     4304     4304
  grid # 5     1192     1192     1192     1192     1192     1192     1192
  grid # 6     5226     5226     5226     5226     5226     5226     5226
   
  number of gridpoints: 
     atom       H29      H30    total
  grid # 1      118      116     3150
  grid # 2      445      441    11682
  grid # 3     1166     1058    17745
  grid # 4     4304     4304   129120
  grid # 5     1192     1192    35760
  grid # 6     5226     5226   156780
   
  Peak memory usage:   4784 Mb
  
  end of program grid
   
 Time(grid)  user:       14.2  user+sys:       14.2  wallclock:        1.7
  
  start of program rwr
  
  Peak memory usage:   4745 Mb
  
  end of program rwr
   
 Time(rwr)  user:       33.7  user+sys:       33.7  wallclock:        2.8
  
  start of program scf
  
 Energy computed with NOPS off.
  
       i  u  d  i  g                   
       t  p  i  c  r                                 RMS    maximum
       e  d  i  u  i                       energy  density   DIIS  
       r  t  s  t  d       total energy    change  change    error 
  
etot    1  N  N  2  U    -692.38156768724           1.3E-03  7.6E-03
etot    2  Y  Y  6  M    -692.40375256581  2.2E-02  6.0E-04  3.0E-03
etot    3  N  Y  2  U    -692.40223774329 -1.5E-03  3.9E-04  5.8E-03
etot    4  Y  Y  6  M    -692.40534933388  3.1E-03  8.5E-05  1.4E-03
etot    5  Y  Y  6  M    -692.40545435922  1.1E-04  5.9E-05  6.3E-04
etot    6  N  Y  2  U    -692.40549966770  4.5E-05  3.9E-05  3.9E-04
etot    7  N  Y  2  U    -692.40551855841  1.9E-05  4.4E-05  3.8E-04
etot    8  N  Y  2  U    -692.40553420476  1.6E-05  2.9E-05  2.9E-04
etot    9  N  Y  2  U    -692.40554258440  8.4E-06  2.8E-05  1.5E-04
etot   10  N  Y  2  U    -692.40554749528  4.9E-06  1.4E-05  1.1E-04
etot   11  N  Y  2  U    -692.40554913487  1.6E-06  1.3E-05  7.9E-05
etot   12  N  Y  2  U    -692.40555023553  1.1E-06  7.6E-06  6.3E-05
etot   13  N  Y  2  U    -692.40555073811  5.0E-07  8.2E-06  4.6E-05
etot   14  N  Y  2  U    -692.40555118364  4.5E-07  9.8E-06  3.2E-05
etot   15  N  Y  2  U    -692.40555151913  3.4E-07  3.1E-06  2.2E-05
etot   16  N  N  2  U    -692.40555158422  6.5E-08  0.0E+00  0.0E+00
  
  
 Energy components, in hartrees:
   (A)  Nuclear repulsion............    1144.56628220055
   (E)  Total one-electron terms.....   -3187.61122246872
   (I)  Total two-electron terms.....    1350.63938868395
   (L)  Electronic energy............   -1836.97183378477  (E+I)
   (N)  Total energy.................    -692.40555158422  (A+L)
   (O)  Gas phase energy.............    -692.40555158422
  
                                 Total             Coulomb       Exchange+Corr.
 Total two-electron terms    1350.63938868395    1452.29697710593    -101.65758842198
   Hamiltonian  1........     695.34812924325     731.56531067920     -36.21718143595
   Hamiltonian  2........     684.87331614617     720.73166642673     -35.85835028056
  
 SCFE: SCF energy: UDFT(b3lyp)      -692.40555158422 hartrees   iterations:  16
  
 
 Alpha HOMO energy:    -0.33987
 Alpha LUMO energy:    -0.25387
 
  Alpha Orbital energies (hartrees): 
   -10.43693   -10.41433   -10.40699   -10.40190   -10.39248   -10.38762
   -10.36792   -10.36625   -10.35724   -10.35479   -10.34802   -10.33565
   -10.33442   -10.32984   -10.31628   -10.31292   -10.31044   -10.30897
    -1.09002    -1.02724    -0.99468    -0.95298    -0.93618    -0.92071
    -0.90000    -0.87943    -0.85243    -0.79504    -0.78719    -0.75003
    -0.74775    -0.73662    -0.72199    -0.69497    -0.65993    -0.64810
    -0.64571    -0.61852    -0.61252    -0.60586    -0.59561    -0.58995
    -0.57954    -0.57462    -0.56717    -0.55657    -0.54853    -0.54426
    -0.52316    -0.51133    -0.48444    -0.47559    -0.46827    -0.44547
    -0.42304    -0.41598    -0.39618    -0.36484    -0.35898    -0.33987
    -0.25387    -0.23381    -0.22319    -0.18396    -0.16302    -0.11026
    -0.10626    -0.05242    -0.03873    -0.03448
 
 
 Beta HOMO energy:    -0.34558
 Beta LUMO energy:    -0.26390
 
  Beta Orbital energies (hartrees): 
   -10.43740   -10.41322   -10.40630   -10.40333   -10.39114   -10.37503
   -10.36903   -10.36578   -10.35651   -10.35333   -10.34839   -10.33494
   -10.33449   -10.32991   -10.31603   -10.31273   -10.31040   -10.30886
    -1.08467    -1.02497    -0.99119    -0.94974    -0.93056    -0.91887
    -0.89643    -0.87789    -0.85088    -0.79033    -0.78558    -0.74667
    -0.74222    -0.73293    -0.72059    -0.69260    -0.65805    -0.64686
    -0.64182    -0.61458    -0.60838    -0.60248    -0.59424    -0.58777
    -0.57693    -0.57127    -0.56626    -0.55555    -0.54745    -0.54284
    -0.52049    -0.51008    -0.48237    -0.47365    -0.46788    -0.44119
    -0.41811    -0.40938    -0.39516    -0.36269    -0.34558    -0.26390
    -0.23869    -0.23320    -0.20241    -0.17826    -0.15683    -0.10842
    -0.10428    -0.05078    -0.03640
 
  
  
    Unrestricted Spin Properties ...
    Sz*(Sz+1)      0.750
    <S**2> ...     0.883
  
  
  Peak memory usage:   6747 Mb
  
  end of program scf
   
 Time(scf)  user:      193.4  user+sys:      193.4  wallclock:       13.6
  
  start of program der1a
  
  Peak memory usage:   4838 Mb
  
  end of program der1a
   
 Time(der1a)  user:        1.7  user+sys:        1.7  wallclock:        0.4
  
  start of program rwr
  
  Peak memory usage:   4745 Mb
  
  end of program rwr
   
 Time(rwr)  user:       25.6  user+sys:       25.6  wallclock:        3.2
  
  start of program der1b
  
   
  forces (hartrees/bohr) : total     
   
 atom  label           x              y              z
 ---- --------   -------------  -------------  -------------
    1 C1          1.534757E-03   1.353455E-02  -1.162064E-03
    2 C2          2.390888E-02  -1.033829E-02   1.044848E-02
    3 C3         -5.620536E-03   1.607275E-02  -1.346596E-02
    4 C4         -4.124639E-02  -4.744985E-02   3.159623E-03
    5 C5         -1.397021E-02   2.303340E-02   3.454223E-03
    6 C6          4.987480E-02  -3.262593E-02  -2.093839E-02
    7 C7         -8.557065E-03   1.236465E-02   8.481934E-03
    8 C8         -1.505780E-02   2.319616E-04  -4.883609E-03
    9 C9          1.720165E-02  -6.299811E-03  -1.890630E-03
   10 C10         1.822701E-03   1.988085E-02   2.245217E-02
   11 C11        -3.578049E-03  -1.835389E-02  -3.159050E-02
   12 C12        -3.130258E-03   8.316613E-03   2.704647E-03
   13 C13         7.054487E-03  -3.731173E-03   8.076462E-03
   14 C14        -3.338699E-03   5.882037E-04   5.486817E-04
   15 C15         2.624143E-03   1.427723E-04   8.163644E-04
   16 C16        -5.302471E-04  -2.224336E-03  -1.713100E-03
   17 C17         2.205286E-03  -5.254224E-03   5.982144E-03
   18 C18        -8.771666E-03   3.454627E-03  -2.836352E-04
   19 H19        -6.078739E-03  -3.481594E-03   1.118371E-02
   20 H20        -4.076489E-03   4.316207E-04  -5.771451E-03
   21 H21         6.755898E-03  -6.070711E-03   1.900907E-03
   22 H22        -4.252092E-04   3.328148E-02  -3.119729E-03
   23 H23         4.135860E-03   4.538734E-03   1.477281E-02
   24 H24        -1.356699E-03   3.953402E-03   2.936221E-04
   25 H25        -3.252655E-03  -5.851157E-03  -7.179328E-03
   26 H26        -2.065367E-04   1.600120E-03   2.809056E-03
   27 H27         3.657033E-04  -4.034082E-04  -5.601130E-04
   28 H28         5.775949E-04   1.792614E-04  -3.649254E-04
   29 H29         1.096353E-04   9.894465E-05   2.053784E-04
   30 H30         9.076729E-04   6.385966E-04  -4.195657E-03
 -------------   -------------  -------------  -------------
     total       -1.181741E-04   2.581520E-04   1.711111E-04
   
  Peak memory usage:   6740 Mb
  
  end of program der1b
   
 Time(der1b)  user:       29.4  user+sys:       29.4  wallclock:        2.4
  
  start of program geopt
  
 ----------------------------------------------------------------------------
  Geometry optimization step  5
  Total energy:      -692.40555158422 hartrees
 ----------------------------------------------------------------------------
  
  
  Level shifts adjusted to satisfy step-size constraints
   Step size:    0.3002938
   Cos(theta):   0.9927090
   Final level shift:  -4.2506785E-01
  
  energy change:          -4.8881E-02 .  (  5.0000E-05 )
  gradient maximum:        6.1344E-02 .  (  4.5000E-04 )
  gradient rms:            1.4211E-02 .  (  3.0000E-04 )
  displacement maximum:    1.2509E-01 .  (  1.8000E-03 )
  displacement rms:        2.8761E-02 .  (  1.2000E-03 )
  
  predicted energy change:  -4.1278E-02
  step size:     0.30027
  trust radius:  0.30000
  
  molecular structure not yet converged...
  
  center of mass moved by:
     x:    -1.0956E-02     y:    -1.9355E-02     z:    -1.6080E-02
  
  new geometry: 
                                   angstroms
  atom               x                 y                 z
  C1            1.4820801374      1.4098974970     -0.4054674365 
  C2            1.8465255638      0.0535808055     -0.9484363031 
  C3            2.8711003482      0.2775379051     -1.8923738928 
  C4            3.9525152075      0.3657718125     -0.9513063309 
  C5            3.9568057578      1.6717464972     -0.3116730038 
  C6            2.6332378297      2.0446161896      0.2410011571 
  C7            5.3832784819      2.1310127111     -0.5201925272 
  C8            6.4045402783      1.2310957785     -0.3703828292 
  C9            6.1138554827     -0.1546033039      0.0158446955 
  C10           4.7344532699     -0.6156054855     -0.1705965325 
  C11           4.2918190628     -1.5761080066      0.7254125170 
  C12           5.2243376144     -2.5996625908      1.1160395858 
  C13           4.7879735003     -3.9030361085      1.4467020248 
  C14           5.7267635597     -4.8723566583      1.7848217591 
  C15           7.1012749317     -4.5556292658      1.8228632444 
  C16           7.5496899771     -3.2912904527      1.4606005522 
  C17           6.6285792186     -2.3012170320      1.0429376428 
  C18           7.0322598178     -0.9964796897      0.6117094464 
  H19           0.5998721665      1.9724826929     -0.7014820733 
  H20           1.8596385567     -0.7752858174     -0.2353156285 
  H21           2.7114364662      1.0876744157     -2.6098704017 
  H22           2.5892177722      2.2428923006      1.3157071086 
  H23           5.4924405191      3.0655102528     -1.0693548170 
  H24           7.4287566695      1.5042098705     -0.5993529765 
  H25           3.2511322083     -1.6691529573      1.0187862118 
  H26           3.7348965715     -4.1568460213      1.3956701173 
  H27           5.4013515332     -5.8771713462      2.0292821822 
  H28           7.8118454317     -5.3156255275      2.1275667907 
  H29           8.6113467529     -3.0677400656      1.4565860857 
  H30           8.0468339705     -0.6681847905      0.8116995003 
   
  nuclear repulsion energy.......    1143.387571905 hartrees
  -------------------------------------------------
 /  end of geometry optimization iteration   5   /
 -------------------------------------------------
   
  Peak memory usage:   4726 Mb
  
  end of program geopt
   
 Time(geopt)  user:        3.7  user+sys:        3.7  wallclock:        0.3
  
  start of program onee
  
  smallest eigenvalue of S:    5.070E-04
  number of canonical orbitals.....          186
  Peak memory usage:   4838 Mb
  
  end of program onee
   
 Time(onee)  user:        2.1  user+sys:        2.1  wallclock:        0.5
  
  start of program probe
  
  Peak memory usage:   4756 Mb
  
  end of program probe
   
[...]
   -10.35239   -10.34898   -10.34498   -10.34327   -10.33999   -10.33428
   -10.33266   -10.33204   -10.32619   -10.32586   -10.32140   -10.31809
    -1.04854    -1.01821    -0.98490    -0.94945    -0.93587    -0.91209
    -0.89601    -0.87262    -0.85394    -0.79923    -0.78031    -0.76158
    -0.73727    -0.73598    -0.69896    -0.68122    -0.65755    -0.65268
    -0.63135    -0.61510    -0.60209    -0.59457    -0.58923    -0.57234
    -0.56767    -0.56048    -0.55658    -0.54907    -0.54159    -0.53005
    -0.52411    -0.50917    -0.49388    -0.47992    -0.47075    -0.46594
    -0.44650    -0.42308    -0.40046    -0.38096    -0.37952    -0.33642
    -0.26457    -0.20058    -0.16119    -0.13558    -0.11173    -0.09647
    -0.06120    -0.02524    -0.01280    -0.01013
 
 
 Beta HOMO energy:    -0.33570
 Beta LUMO energy:    -0.28502
 
  Beta Orbital energies (hartrees): 
   -10.37813   -10.37678   -10.37582   -10.35750   -10.35333   -10.35217
   -10.35084   -10.34658   -10.34558   -10.34303   -10.34063   -10.33355
   -10.33307   -10.33147   -10.32492   -10.32487   -10.32131   -10.31858
    -1.04433    -1.01619    -0.98417    -0.94664    -0.93367    -0.90724
    -0.89578    -0.86774    -0.85169    -0.79317    -0.77954    -0.75911
    -0.73506    -0.73259    -0.69590    -0.67923    -0.65568    -0.65037
    -0.62939    -0.61328    -0.60066    -0.59275    -0.58789    -0.56990
    -0.56488    -0.55800    -0.55473    -0.54552    -0.53929    -0.52886
    -0.52065    -0.50739    -0.49336    -0.47847    -0.47031    -0.46480
    -0.43940    -0.42192    -0.39079    -0.38368    -0.33570    -0.28502
    -0.22795    -0.19352    -0.16230    -0.13073    -0.11147    -0.09099
    -0.05806    -0.02498    -0.01203
 
  
  
    Unrestricted Spin Properties ...
    Sz*(Sz+1)      0.750
    <S**2> ...     1.073
  
  
  Peak memory usage:   6747 Mb
  
  end of program scf
   
 Time(scf)  user:      139.7  user+sys:      139.7  wallclock:       10.1
  
  start of program der1a
  
  Peak memory usage:   4838 Mb
  
  end of program der1a
   
 Time(der1a)  user:        2.1  user+sys:        2.1  wallclock:        0.4
  
  start of program rwr
  
  Peak memory usage:   4745 Mb
  
  end of program rwr
   
 Time(rwr)  user:       23.7  user+sys:       23.7  wallclock:        3.2
  
  start of program der1b
  
   
  forces (hartrees/bohr) : total     
   
 atom  label           x              y              z
 ---- --------   -------------  -------------  -------------
    1 C1          1.356698E-03   1.153060E-02   1.390833E-02
    2 C2          5.591784E-03  -1.299335E-02  -8.601015E-03
    3 C3          1.415707E-02   9.398110E-03   2.111209E-02
    4 C4         -1.261677E-02  -5.176568E-03  -1.042913E-02
    5 C5         -2.617847E-03   1.875802E-02  -7.516220E-04
    6 C6          6.114331E-03  -5.862563E-03  -1.165204E-02
    7 C7          7.285585E-04  -1.717028E-03   4.270877E-03
    8 C8          1.044513E-03   1.901338E-03  -2.165448E-03
    9 C9         -1.195719E-03  -1.161650E-03  -1.686919E-03
   10 C10         5.232711E-03  -3.879156E-03  -2.903905E-03
   11 C11        -1.216173E-03  -2.002157E-03   3.046843E-03
   12 C12         2.879098E-03  -2.887048E-03   1.107698E-03
   13 C13        -1.647051E-03   3.717542E-03  -1.347761E-03
   14 C14         4.126039E-03  -2.405501E-03   1.589094E-03
   15 C15        -2.497965E-03  -3.805641E-03   4.194114E-04
   16 C16         3.640242E-04   4.518093E-03  -1.071702E-03
   17 C17        -3.677202E-04  -3.588816E-03   7.798028E-04
   18 C18        -3.127581E-04   3.342820E-03  -1.714174E-03
   19 H19         8.865502E-04   2.056019E-03   4.479532E-03
   20 H20        -1.725920E-02   3.765168E-04  -1.005685E-02
   21 H21        -4.770909E-03  -9.682549E-03  -2.381293E-04
   22 H22         1.508423E-04   3.104315E-04   1.218739E-03
   23 H23         5.744525E-04  -5.848236E-04  -1.212272E-04
   24 H24         9.187931E-05   1.841869E-04   3.370672E-04
   25 H25        -2.143338E-04   4.528333E-04  -8.999250E-04
   26 H26         8.562455E-04   6.075639E-04   5.233999E-04
   27 H27         4.285761E-04  -1.032642E-04   5.874930E-05
   28 H28        -1.861049E-04  -3.338520E-04  -8.750120E-05
   29 H29         3.602055E-04  -4.392063E-04   2.153200E-04
   30 H30         2.148788E-04  -2.311487E-04   8.923841E-04
 -------------   -------------  -------------  -------------
     total        2.559047E-04   2.997573E-04   2.319940E-04
   
  Peak memory usage:   6740 Mb
  
  end of program der1b
   
 Time(der1b)  user:       30.6  user+sys:       30.6  wallclock:        2.4
  
  start of program geopt
  
 ----------------------------------------------------------------------------
  Geometry optimization step 22
  Total energy:      -692.63785433916 hartrees
 ----------------------------------------------------------------------------
  Invalidating history between points  19  and  20

  
  Hessian eigenvalues: 
   -1.03110E-01    0.00000E+00    0.00000E+00    0.00000E+00    0.00000E+00
    0.00000E+00    0.00000E+00    0.00000E+00    0.00000E+00    0.00000E+00
    0.00000E+00    0.00000E+00    0.00000E+00    0.00000E+00    0.00000E+00
    0.00000E+00    0.00000E+00    0.00000E+00    0.00000E+00    0.00000E+00
    0.00000E+00    0.00000E+00    0.00000E+00    0.00000E+00    0.00000E+00
    0.00000E+00    1.94072E-02    2.70533E-02    2.91444E-02    3.14194E-02
    3.48619E-02    3.57357E-02    4.02813E-02    4.60067E-02    4.90207E-02
    5.84461E-02    6.95937E-02    7.34379E-02    8.08591E-02    9.96434E-02
    1.08575E-01    1.35801E-01    1.37341E-01    1.58343E-01    1.65766E-01
    1.93887E-01    1.99404E-01    2.04459E-01    2.06546E-01    2.09523E-01
    2.14107E-01    2.20877E-01    2.23838E-01    2.34602E-01    2.42156E-01
    2.44567E-01    2.55413E-01    2.58322E-01    2.78828E-01    2.85458E-01
    2.86057E-01    2.95889E-01    3.02907E-01    3.08772E-01    3.15339E-01
    3.16870E-01    3.19919E-01    3.22896E-01    3.26774E-01    3.33185E-01
    3.36038E-01    3.37257E-01    3.40456E-01    3.44953E-01    3.45568E-01
    3.45853E-01    3.46264E-01    3.46371E-01    3.46480E-01    3.46864E-01
    3.46909E-01    3.47123E-01    3.47352E-01    3.47497E-01    3.48064E-01
    3.48375E-01    3.50238E-01    3.59117E-01    3.62419E-01    3.75298E-01
    3.77906E-01    3.81477E-01    3.89297E-01    3.94620E-01    3.98394E-01
    4.15094E-01    4.20616E-01    4.29458E-01    4.34096E-01    4.56804E-01
    4.74590E-01    5.12579E-01    5.26658E-01    5.32232E-01    5.69199E-01
    6.02198E-01    6.76502E-01    6.88490E-01    7.16286E-01
  
 WARNING: Hessian has wrong number of negative eigenvalues:           1
  
  
  Level shifts adjusted to satisfy step-size constraints
   Step size:    0.3002262
   Cos(theta):   0.8788410
   Final level shift:  -2.4771430E-01
  
  energy change:          -1.0296E-02 .  (  5.0000E-05 )
  gradient maximum:        3.2722E-02 .  (  4.5000E-04 )
  gradient rms:            5.3753E-03 .  (  3.0000E-04 )
  displacement maximum:    1.7972E-01 .  (  1.8000E-03 )
  displacement rms:        2.8752E-02 .  (  1.2000E-03 )
  
  predicted energy change:  -1.8566E-02
  step size:     0.30018
  trust radius:  0.30000
  
  molecular structure not yet converged...
  
  center of mass moved by:
     x:     2.2129E-03     y:     5.6987E-03     z:     9.5201E-03
  
  new geometry: 
                                   angstroms
  atom               x                 y                 z
  C1            1.5310975264      2.1459867676     -0.8288831645 
  C2            1.2591844655      0.8691200510     -0.3358588511 
  C3            2.2620039327     -0.1195599353     -0.7220609033 
  C4            3.6677024684      0.2445647668     -0.3339212602 
  C5            3.9740731139      1.6307153071     -0.5822997911 
  C6            2.9124542470      2.5113268650     -0.9168229631 
  C7            5.3274833913      2.0949177678     -0.4220632987 
  C8            6.3008624927      1.2428110026      0.0272941305 
  C9            6.0170804700     -0.1366650188      0.3146006937 
  C10           4.6667047805     -0.6416355797      0.0944554867 
  C11           4.3890083508     -2.0150751213      0.3150101845 
  C12           5.3763340703     -2.8928664597      0.7680711788 
  C13           5.1040840543     -4.2817821164      0.9973574189 
  C14           6.0945649675     -5.1203868981      1.4571587844 
  C15           7.4040429113     -4.6160101561      1.7049359724 
  C16           7.7067786386     -3.2829025703      1.4898873706 
  C17           6.7138392809     -2.3830057046      1.0175799112 
  C18           6.9930490272     -1.0159186718      0.7808409482 
  H19           0.7816590567      2.9308441447     -0.8699476273 
  H20           0.4874239847      0.6397609438      0.3935196097 
  H21           2.2314316832     -0.4262289395     -1.7709914260 
  H22           3.1589429415      3.5456640675     -1.1399495111 
  H23           5.5583738028      3.1329203862     -0.6347417069 
  H24           7.3170110949      1.5975858473      0.1616204304 
  H25           3.3806162945     -2.3791761280      0.1437640173 
  H26           4.1054039790     -4.6580938251      0.7999072046 
  H27           5.8861303942     -6.1693656976      1.6326285657 
  H28           8.1708961322     -5.2913830004      2.0678080903 
  H29           8.7077569758     -2.9101081005      1.6792490911 
  H30           8.0000919376     -0.6499998613      0.9556236675 
   
  nuclear repulsion energy.......    1124.324254011 hartrees
  -------------------------------------------------
 /  end of geometry optimization iteration  22   /
 -------------------------------------------------
   
  Peak memory usage:   4726 Mb
  
  end of program geopt
   
 Time(geopt)  user:        6.2  user+sys:        6.2  wallclock:        0.5
  
  start of program onee
  
  smallest eigenvalue of S:    2.896E-04
  number of canonical orbitals.....          185
  Peak memory usage:   4838 Mb
  
  end of program onee
   
 Time(onee)  user:        3.0  user+sys:        3.0  wallclock:        0.5
  
  start of program probe
  
  Peak memory usage:   4756 Mb
  
  end of program probe
   
 Time(probe)  user:        2.6  user+sys:        2.6  wallclock:        0.5
  
  start of program grid
  
   grid     grid set  grid #  grid sym
  ------    --------  ------  --------
  coarse        0        0        1
  medium        2        1        1
  fine          0        0        1
  ultrafine     4        2        1
  charge       -1        3        1
  gradient      4        2        1
  density       0        0        1
  DFT-fine    -11        4        1
  DFT-med.    -10        5        1
  DFT-grad    -12        6        1
  DFT-der2      0        0        1
  DFT-cphf      0        0        1
  LMP2-enrg     4        2        1
  LMP2-grad     2        1        1
  DFT-cphf2     0        0        1
  PBF-dens      0        0        1
  plotting      0        0        1
  Rel-grad    -17        0        1
  
  number of gridpoints: 
     atom        C1       C2       C3       C4       C5       C6       C7
  grid # 1       94       95       95       99      100       97       97
  grid # 2      340      336      344      368      365      339      337
  grid # 3      167      128       82      161      223      195      228
  grid # 4     4304     4304     4304     4304     4304     4304     4304
  grid # 5     1192     1192     1192     1192     1192     1192     1192
  grid # 6     5226     5226     5226     5226     5226     5226     5226
   
  number of gridpoints: 
     atom        C8       C9      C10      C11      C12      C13      C14
  grid # 1       95      100      100       97       99       97       97
  grid # 2      337      366      365      340      363      337      339
  grid # 3      228      248      238      226      250      226      227
  grid # 4     4304     4304     4304     4304     4304     4304     4304
  grid # 5     1192     1192     1192     1192     1192     1192     1192
  grid # 6     5226     5226     5226     5226     5226     5226     5226
   
  number of gridpoints: 
     atom       C15      C16      C17      C18      H19      H20      H21
  grid # 1       97       97       99       97      118      118      115
  grid # 2      339      339      366      339      455      462      453
  grid # 3      228      230      254      230     1380     1484     1212
  grid # 4     4304     4304     4304     4304     4304     4304     4304
  grid # 5     1192     1192     1192     1192     1192     1192     1192
  grid # 6     5226     5226     5226     5226     5226     5226     5226
   
  number of gridpoints: 
     atom       H22      H23      H24      H25      H26      H27      H28
  grid # 1      116      116      118      114      118      118      118
  grid # 2      444      445      444      437      444      451      451
  grid # 3     1134     1147     1143      828     1154     1334     1328
  grid # 4     4304     4304     4304     4304     4304     4304     4304
  grid # 5     1192     1192     1192     1192     1192     1192     1192
  grid # 6     5226     5226     5226     5226     5226     5226     5226
   
  number of gridpoints: 
     atom       H29      H30    total
  grid # 1      118      118     3157
  grid # 2      444      437    11626
  grid # 3     1147      956    18016
  grid # 4     4304     4304   129120
  grid # 5     1192     1192    35760
  grid # 6     5226     5226   156780
   
  Peak memory usage:   4784 Mb
  
  end of program grid
   
 Time(grid)  user:       13.6  user+sys:       13.6  wallclock:        1.2
  
  start of program rwr
  
  Peak memory usage:   4745 Mb
  
  end of program rwr
   
 Time(rwr)  user:       30.2  user+sys:       30.2  wallclock:        2.8
  
  start of program scf
  
 Energy computed with NOPS off.
  
       i  u  d  i  g                   
       t  p  i  c  r                                 RMS    maximum
       e  d  i  u  i                       energy  density   DIIS  
       r  t  s  t  d       total energy    change  change    error 
  
etot    1  N  N  2  U    -692.64053848025           8.3E-04  1.0E-02
etot    2  Y  Y  6  M    -692.65115416915  1.1E-02  4.0E-04  4.4E-03
etot    3  N  Y  2  U    -692.65173247290  5.8E-04  2.1E-04  2.4E-03
etot    4  Y  Y  6  M    -692.65237822649  6.5E-04  8.2E-05  1.2E-03
etot    5  Y  Y  6  M    -692.65245430802  7.6E-05  8.9E-05  8.0E-04
etot    6  Y  Y  6  M    -692.65251962185  6.5E-05  4.1E-05  5.6E-04
etot    7  N  Y  2  U    -692.65256440687  4.5E-05  9.5E-05  3.7E-04
etot    8  Y  Y  6  M    -692.65261794721  5.4E-05  1.1E-04  4.4E-04
etot    9  Y  Y  6  M    -692.65267252214  5.5E-05  2.0E-04  3.4E-04
etot   10  Y  Y  6  M    -692.65275062645  7.8E-05  7.7E-05  2.4E-04
etot   11  Y  Y  6  M    -692.65277856052  2.8E-05  2.5E-04  2.3E-04
etot   12  N  Y  2  U    -692.65286278679  8.4E-05  1.7E-04  3.0E-04
etot   13  Y  Y  6  M    -692.65291449471  5.2E-05  6.5E-05  4.0E-04
etot   14  Y  Y  6  M    -692.65289314652 -2.1E-05  4.0E-05  3.8E-04
etot   15  N  Y  2  U    -692.65290715010  1.4E-05  2.5E-04  3.9E-04
etot   16  Y  Y  6  M    -692.65282732603 -8.0E-05  2.0E-04  4.2E-04
etot   17  Y  Y  6  M    -692.65275942854 -6.8E-05  3.4E-04  5.3E-04
etot   18  N  Y  2  U    -692.65286150180  1.0E-04  6.1E-04  5.8E-04
etot   19  Y  Y  6  M    -692.65307448397  2.1E-04  1.3E-04  9.9E-04
etot   20  Y  Y  6  M    -692.65302039760 -5.4E-05  2.7E-04  8.9E-04
etot   21  Y  Y  6  M    -692.65289846021 -1.2E-04  1.4E-04  9.8E-04
etot   22  Y  Y  6  M    -692.65290038198  1.9E-06  1.1E-04  1.4E-03
etot   23  N  Y  2  U    -692.65288895113 -1.1E-05  8.8E-05  1.2E-03
etot   24  Y  Y  6  M    -692.65290878074  2.0E-05  4.8E-05  1.3E-03
etot   25  N  Y  2  U    -692.65290350381 -5.3E-06  8.9E-05  1.2E-03
etot   26  Y  Y  6  M    -692.65292177298  1.8E-05  8.0E-04  1.3E-03
etot   27  N  Y  2  U    -692.65267698611 -2.4E-04  1.4E-04  1.1E-03
etot   28  Y  Y  6  M    -692.65272432037  4.7E-05  5.6E-04  1.1E-03
etot   29  N  Y  2  U    -692.65287111070  1.5E-04  3.2E-04  1.4E-03
etot   30  Y  Y  6  M    -692.65302223077  1.5E-04  6.6E-05  1.4E-03
etot   31  Y  Y  6  M    -692.65301057487 -1.2E-05  3.8E-05  1.2E-03
etot   32  N  Y  2  U    -692.65298627819 -2.4E-05  3.4E-04  1.5E-03
etot   33  Y  Y  6  M    -692.65239126988 -6.0E-04  2.4E-04  3.2E-03
etot   34  Y  Y  6  M    -692.65292463364  5.3E-04  4.4E-04  2.8E-04
etot   35  N  Y  2  U    -692.65301974152  9.5E-05  3.5E-05  1.4E-03
etot   36  N  Y  2  U    -692.65303028991  1.1E-05  3.4E-05  1.4E-03
etot   37  N  Y  2  U    -692.65306178919  3.1E-05  7.8E-04  1.1E-03
etot   38  Y  Y  6  M    -692.65281948500 -2.4E-04  3.7E-05  3.0E-04
etot   39  N  Y  2  U    -692.65280579326 -1.4E-05  2.3E-04  3.4E-04
etot   40  Y  Y  6  M    -692.65271564586 -9.0E-05  2.8E-04  6.4E-04
etot   41  Y  Y  6  M    -692.65282104916  1.1E-04  1.4E-04  3.5E-04
etot   42  Y  Y  6  M    -692.65285903060  3.8E-05  2.0E-04  4.6E-04
etot   43  Y  Y  6  M    -692.65291625648  5.7E-05  5.6E-04  6.3E-04
etot   44  N  Y  2  U    -692.65300177422  8.6E-05  2.0E-04  1.9E-03
etot   45  Y  Y  6  M    -692.65299307505 -8.7E-06  3.8E-05  1.3E-03
etot   46  N  Y  2  U    -692.65299650536  3.4E-06  3.1E-05  1.5E-03
etot   47  N  Y  2  U    -692.65299809905  1.6E-06  3.8E-04  1.5E-03
etot   48  Y  N  6  M    -692.65304040348  4.2E-05  0.0E+00  0.0E+00
  
 ERROR 2256: fatal error
  
  SCF convergence failure:  Maximum number of iterations reached


 ----------------------------------------------------------------------
 Jaguar cannot recover from this error and will now abort. 
 For technical support please contact the Schrodinger Support Center at
 http://www.schrodinger.com/supportcenter/ or help@schrodinger.com
 ----------------------------------------------------------------------



 Total cpu seconds     user:    5678.781   user+sys:    5678.781

  
Date:          Sun 08 Jan 2017 22:33:51
SCHRODINGER:   /home/applications/Schrodinger_Suites_2016-3
uname -a:      Linux n032 2.6.32-431.el6.x86_64 #1 SMP Fri Nov 22 03:15:09 UTC 2013 x86_64 x86_64 x86_64 GNU/Linux
FQDN:          n032.panther.net
Main memory:   32214 MB
Free disk:     39863917 MB
Host ID:       3440b5c711f6
Machine name:  n032
OS:            CentOS release 6.5 (Final)
CPU:           Intel(R) Xeon(R) CPU E5-2650 0 @ 2.00GHz
Processors:    16
Memory:        33779527 kB
Swap:          0 kB
kernel:        2.6.32-431.el6.x86_64
glibc:         2.12
Product:       aacg-v17015-Linux-x86_64 (4d5e4891b95edc3974c2f897a8f2bbfda884f701)
Product:       bioluminate-v24015-Linux-x86_64 (c7e9ddecc01a31ee6f1f49fd0866fec40be878d9)
Product:       canvas-v29015-Linux-x86_64 (eefcb58a94f04937200c16cc72ce65c92553d20f)
Product:       combiglide-v42015-Linux-x86_64 (649832a5082f66cb6c92b108724a8a540362cfc8)
Product:       desmond-v47015-Linux-x86_64 (cd195a3f6f7c69c2e4a7d397341063b5fd7f9fa7)
Product:       epik-v37015-Linux-x86_64 (3a54a2d4762d4d26ff3f381b6eba74ffec5b135e)
Product:       glide-v72015-Linux-x86_64 (7bda026d4634ee2331fde20a7d677e0633c1458c)
Product:       impact-v72015-Linux-x86_64 (78357f574412e54dad3121cb0c6c311417a07a40)
Product:       jaguar-v93015-Linux-x86_64 (c979cf15abdb397bfe3d00837bb358b46bdb9998)
Product:       knime-v35015-Linux-x86_64 (fe637e1275d976d9c56b403a2c6666f075125988)
Product:       macromodel-v113015-Linux-x86_64 (c5bdb4b8bf816c7fdd53141b85dce76bf6aeaad9)
Product:       maestro-v107015-Linux-x86_64 (c112f21020c11ad6d55a6f13bf2f9e71852ad421)
Product:       mcpro-v43015-Linux-x86_64 (a66fce8e103e80d6ab062d78a9dd96a664b153ee)
Product:       mmshare-v35015-Linux-x86_64 (6deaa6dca9205019a9800e1f617340ea168c2739)
Product:       phase-v48015-Linux-x86_64 (5f5e3df18b3bb719c7300fee47d9ebb55737e27a)
Product:       pldb-v35015-Linux-x86_64 (5fa9a4c6731880caf6cab7034454a839dd077a79)
Product:       psp-v45015-Linux-x86_64 (af3c2b23dcf79d506aa27a3bffa4cca73631134b)
Product:       qikprop-v49015-Linux-x86_64 (5521a265f711fdfde92d556bb69a9e3f62beb1bd)
