Job 2,3-Benzanthracene_1 started on n033 at Sun Jan  8 22:24:16 2017
jobid: u01-0-58730250

  +--------------------------------------------------------------------+
  |  Jaguar version 9.3, release  15                                   |
  |                                                                    |
  |  Copyright Schrodinger, Inc.                                       |
  |  All Rights Reserved.                                              |
  |                                                                    |
  |  The following have contributed to Jaguar (listed alphabetically): |
  |  Mike Beachy, Art Bochevarov, Dale Braden, Yixiang Cao,            |
  |  Chris Cortis, Rich Friesner, Bill Goddard, Hod Greeley,           |
  |  Tom Hughes, Leif Jacobson, Jean-Marc Langlois,                    |
  |  Daniel Mainz, Rob Murphy, Dean Philipp,                           |
  |  Tom Pollard, Murco Ringnalda, Mark Watson.                        |
  |                                                                    |
  |  Use of this program should be acknowledged in publications as:    |
  |                                                                    |
  |  Jaguar, version 9.3, Schrodinger, Inc., New York, NY, 2016.       |
  |                                                                    |
  |  A. D. Bochevarov, E. Harder, T. F. Hughes, J. R. Greenwood,       |
  |  D. A. Braden, D. M. Philipp, D. Rinaldo, M. D. Halls,             |
  |  J. Zhang, R. A. Friesner, "Jaguar: A High-Performance Quantum     |
  |  Chemistry Software Program with Strengths in Life and Materials   |
  |  Sciences", Int. J. Quantum Chem., 2013, 113(18), 2110-2142.       |
  +--------------------------------------------------------------------+
  
  start of program pre
  
  Job name: 2,3-Benzanthracene_1
  Executables used: /home/applications/Schrodinger_Suites_2016-3/jaguar-v9.3/bin/Linux-x86_64
  Temporary files : /scratch/Schrodinger_Suites/pbeni001/2,3-Benzanthracene_1#u01-0-58730250
  Maestro file (input):  2,3-Benzanthracene_1.mae
  Maestro file (output): 2,3-Benzanthracene_1.01.mae
  
  basis set:             6-31g                           
  net molecular charge:    1
  multiplicity:            2
  
  Using up to  16 threads per process
  
  number of basis functions....          186
  
 Input geometry:
                                   angstroms
  atom               x                 y                 z
  C1           -3.5690287000      0.7026443000      0.2963008000 
  C2           -3.5729910000     -0.6886370000      0.3007480000 
  C3           -2.4030023000     -1.3860576000      0.0144077000 
  C4           -1.2213869000     -0.6712600000     -0.2424088000 
  C5           -0.0404797000     -1.3690710000     -0.4478519000 
  C6            1.1505956000     -0.6835088000     -0.2219110000 
  C7            2.2008394000     -1.4983235000      0.1532420000 
  C8            3.3323661000     -0.9458241000      0.7358908000 
  C9            4.2527163000     -1.7338095000      1.4844944000 
  C10           4.8523818000     -2.5441348000      0.6220038000 
  C11           5.6659730000     -1.6051219000      0.0140800000 
  C12           5.1842934000     -0.0882962000      0.0076827000 
  C13           3.7433647000      0.2038704000      0.1879409000 
  C14           2.6040001000      1.2053082000      0.0300125000 
  C15           1.2636529000      0.6957938000     -0.1747234000 
  C16           0.0445762000      1.4125062000     -0.3686980000 
  C17          -1.1915990000      0.7274880000     -0.2230849000 
  C18          -2.3945246000      1.4129554000      0.0170414000 
  H19          -4.4811028000      1.2456046000      0.5303175000 
  H20          -4.4821348000     -1.2363019000      0.5345023000 
  H21          -2.4023393000     -2.4713092000      0.0578353000 
  H22          -0.0402417000     -2.4383609000     -0.5960207000 
  H23           2.1097379000     -2.5659180000      0.1146665000 
  H24           5.0878909000     -1.1555395000      2.0254820000 
  H25           4.1761424000     -3.2808606000      0.1603391000 
  H26           6.6835346000     -1.9012784000      0.3350479000 
  H27           5.8315523000      0.7174043000      0.3750753000 
  H28           2.7141332000      2.2894764000     -0.0000016000 
  H29           0.0387927000      2.4780549000     -0.5527443000 
  H30          -2.4058551000      2.4955376000      0.0604844000 
   
  principal moments of inertia:
        amu*angstrom^2:      338.16026     2170.97149     2432.41435
                g*cm^2: 5.61528246E-38 3.60498252E-37 4.03911855E-37
   
  rotational constants:
               cm^(-1):      0.04985101      0.00776502      0.00693041
                   GHz:      1.49449558      0.23278933      0.20776847
   
  Molecular weight:     228.09 amu
   
  Stoichiometry: C18H12
  Molecular Point Group: C1      
  Point Group used: C1
  
 
Number of optimization coordinates:   108
Number of independent coordinates:    108
Number of non-redundant coordinates:   84
Number of frozen coordinates:           0
Number of harmonic constraints:         0
 
Number of geometric degrees of freedom:    84
Maximum geometric degrees of freedom:      84
 " " " " " excluding dummy atoms:          84
 
  nuclear repulsion energy.......    1136.408787008 hartrees
 
 Non-default options chosen:
   SCF calculation type: UDFT(b3lyp)                 
   UDFT=Becke_3_Parameter/HF+Slater+Becke88+VWN+LYP (B3LYP)
   Geometry will be optimized in redundant internal coordinates
   Electrostatic potential fit to point charges on atomic centers
   Electrostatic potential fitting constrained to reproduce
     total charge:                yes
     dipole moment:               yes
     traceless quadrupole moment: no 
     traceless octapole moment:   no 
  
 Temporary integer options set:
     73=  2
  
  Peak memory usage:   4802 Mb
  
  end of program pre
   
 Time(pre)  user:        9.7  user+sys:        9.7  wallclock:        1.8
  
  start of program onee
  
  smallest eigenvalue of S:    3.921E-04
  number of canonical orbitals.....          185
  Peak memory usage:   4838 Mb
  
  end of program onee
   
 Time(onee)  user:        2.6  user+sys:        2.6  wallclock:        0.7
  
  start of program hfig
  
  initial wavefunction generated automatically from atomic wavefunctions
  
  -------------------
  Alpha orbital space
  -------------------
 
  Irreducible     Total no   No of occupied orbitals 
  representation  orbitals   Shell_1  Shell_2    ...
  No Symm          185         60
  ------------------------
  Orbital occupation/shell    1.000
 
  ------------------
  Beta orbital space
  ------------------
 
  Irreducible     Total no   No of occupied orbitals 
  representation  orbitals   Shell_1  Shell_2    ...
  No Symm          185         59
  ------------------------
  Orbital occupation/shell    1.000
 
  
  
    Unrestricted Spin Properties ...
    Sz*(Sz+1) ..............     0.750
    <S**2> of initial guess      0.750
  
  
  Peak memory usage:   4756 Mb
  
  end of program hfig
   
 Time(hfig)  user:        4.4  user+sys:        4.4  wallclock:        0.6
  
  start of program probe
  
  Peak memory usage:   4756 Mb
  
  end of program probe
   
 Time(probe)  user:        1.1  user+sys:        1.1  wallclock:        0.4
  
  start of program grid
  
   grid     grid set  grid #  grid sym
  ------    --------  ------  --------
  coarse        0        0        1
  medium        2        1        1
  fine          0        0        1
  ultrafine     4        2        1
  charge       -1        3        1
  gradient      4        2        1
  density       0        0        1
  DFT-fine    -11        4        1
  DFT-med.    -10        5        1
  DFT-grad    -12        6        1
  DFT-der2      0        0        1
  DFT-cphf      0        0        1
  LMP2-enrg     4        2        1
  LMP2-grad     2        1        1
  DFT-cphf2     0        0        1
  PBF-dens      0        0        1
  plotting      0        0        1
  Rel-grad    -17        0        1
  
  number of gridpoints: 
     atom        C1       C2       C3       C4       C5       C6       C7
  grid # 1       97       97       97       97       96      100       95
  grid # 2      338      334      338      353      334      357      332
  grid # 3      228      229      231      236      207      231      184
  grid # 4     4304     4304     4304     4304     4304     4304     4304
  grid # 5     1192     1192     1192     1192     1192     1192     1192
  grid # 6     5226     5226     5226     5226     5226     5226     5226
   
  number of gridpoints: 
     atom        C8       C9      C10      C11      C12      C13      C14
  grid # 1       98       94       94       96       98      103       97
  grid # 2      352      350      335      358      355      370      347
  grid # 3      144      308      182      269      252      170      229
  grid # 4     4304     4304     4304     4304     4304     4304     4304
  grid # 5     1192     1192     1192     1192     1192     1192     1192
  grid # 6     5226     5226     5226     5226     5226     5226     5226
   
  number of gridpoints: 
     atom       C15      C16      C17      C18      H19      H20      H21
  grid # 1      100       97       99       97      118      118      118
  grid # 2      358      336      363      338      451      451      444
  grid # 3      243      224      239      228     1329     1334     1139
  grid # 4     4304     4304     4304     4304     4304     4304     4304
  grid # 5     1192     1192     1192     1192     1192     1192     1192
  grid # 6     5226     5226     5226     5226     5226     5226     5226
   
  number of gridpoints: 
     atom       H22      H23      H24      H25      H26      H27      H28
  grid # 1      113      109      111      114      113      117      118
  grid # 2      436      426      445      439      452      455      451
  grid # 3      894      711     1006     1089     1292     1250     1275
  grid # 4     4304     4304     4304     4304     4304     4304     4304
  grid # 5     1192     1192     1192     1192     1192     1192     1192
  grid # 6     5226     5226     5226     5226     5226     5226     5226
   
  number of gridpoints: 
     atom       H29      H30    total
  grid # 1      115      118     3134
  grid # 2      443      445    11586
  grid # 3     1052     1151    17556
  grid # 4     4304     4304   129120
  grid # 5     1192     1192    35760
  grid # 6     5226     5226   156780
   
  Peak memory usage:   4784 Mb
  
  end of program grid
   
 Time(grid)  user:       12.4  user+sys:       12.4  wallclock:        1.3
  
  start of program rwr
  
  Peak memory usage:   4745 Mb
  
  end of program rwr
   
 Time(rwr)  user:       32.1  user+sys:       32.1  wallclock:        3.0
  
  start of program scf
  
 number of electrons..........        119
 number of alpha electrons....         60
 number of beta electrons.....         59
 number of alpha orbitals.....        185
 number of beta orbitals......        185
 number of alpha occupied orb..        60
 number of alpha virtual orb...       125
 number of beta occupied orb...        59
 number of beta virtual orb....       126
 SCF type: UDFT=Becke_3_Parameter/HF+Slater+Becke88+VWN+LYP (B3LYP)
 Energy computed with NOPS off.
  
       i  u  d  i  g                   
       t  p  i  c  r                                 RMS    maximum
       e  d  i  u  i                       energy  density   DIIS  
       r  t  s  t  d       total energy    change  change    error 
  
etot    1  N  N  5  M    -690.10870351061           1.3E-02  1.6E-01
etot    2  Y  Y  6  M    -689.20202870234 -9.1E-01  1.9E-02  2.2E-01
etot    3  Y  Y  6  M    -678.10833860639 -1.1E+01  1.7E-02  4.1E-01
etot    4  N  Y  2  U    -691.98131652406  1.4E+01  1.3E-02  6.5E-02
etot    5  Y  Y  6  M    -691.11723233396 -8.6E-01  7.2E-03  1.3E-01
etot    6  N  Y  2  U    -692.33120834293  1.2E+00  2.7E-03  2.7E-02
etot    7  Y  Y  6  M    -692.31051289909 -2.1E-02  1.9E-03  4.7E-02
etot    8  N  Y  2  U    -692.37022292398  6.0E-02  6.3E-04  7.3E-03
etot    9  Y  Y  6  M    -692.37416264350  3.9E-03  3.6E-04  3.6E-03
etot   10  Y  Y  6  M    -692.37521432445  1.1E-03  1.4E-04  2.1E-03
etot   11  N  Y  2  U    -692.37548949235  2.8E-04  1.4E-04  1.6E-03
etot   12  Y  Y  6  M    -692.37572745049  2.4E-04  1.3E-04  1.2E-03
etot   13  Y  Y  6  M    -692.37588559768  1.6E-04  1.2E-04  8.5E-04
etot   14  Y  Y  6  M    -692.37600446828  1.2E-04  8.4E-05  7.5E-04
etot   15  Y  Y  6  M    -692.37606180993  5.7E-05  1.2E-04  4.2E-04
etot   16  N  Y  2  U    -692.37614700696  8.5E-05  9.0E-05  2.8E-04
etot   17  Y  Y  6  M    -692.37619603866  4.9E-05  7.7E-05  3.1E-04
etot   18  Y  Y  6  M    -692.37622607293  3.0E-05  8.2E-05  3.2E-04
etot   19  Y  Y  6  M    -692.37625761142  3.2E-05  7.5E-05  1.7E-04
etot   20  Y  Y  6  M    -692.37627757948  2.0E-05  7.2E-05  2.0E-04
etot   21  N  Y  2  U    -692.37628366613  6.1E-06  6.0E-05  1.3E-04
etot   22  Y  Y  6  M    -692.37629152882  7.9E-06  6.7E-06  6.2E-05
etot   23  N  Y  2  U    -692.37628942529 -2.1E-06  2.4E-05  5.4E-05
etot   24  N  Y  2  U    -692.37629036646  9.4E-07  7.5E-06  4.3E-05
etot   25  N  Y  2  U    -692.37629056356  2.0E-07  7.6E-06  2.6E-05
etot   26  N  Y  2  U    -692.37629067394  1.1E-07  1.6E-06  1.2E-05
etot   27  N  N  2  U    -692.37629066239 -1.2E-08  0.0E+00  0.0E+00
  
  
 Energy components, in hartrees:
   (A)  Nuclear repulsion............    1136.40878700817
   (E)  Total one-electron terms.....   -3171.19842965820
   (I)  Total two-electron terms.....    1342.41335198764
   (L)  Electronic energy............   -1828.78507767056  (E+I)
   (N)  Total energy.................    -692.37629066239  (A+L)
   (O)  Gas phase energy.............    -692.37629066239
  
                                 Total             Coulomb       Exchange+Corr.
 Total two-electron terms    1342.41335198764    1444.32745840523    -101.91410641759
   Hamiltonian  1........     691.20448800769     727.51771852474     -36.31323051705
   Hamiltonian  2........     680.86139348488     716.80973988049     -35.94834639561
  
 SCFE: SCF energy: UDFT(b3lyp)      -692.37629066239 hartrees   iterations:  27
  
 
 Alpha HOMO energy:    -0.32621
 Alpha LUMO energy:    -0.26570
 
  Alpha Orbital energies (hartrees): 
   -10.40433   -10.38842   -10.37698   -10.37196   -10.36971   -10.36528
   -10.35506   -10.35114   -10.35055   -10.35015   -10.34638   -10.34227
   -10.33977   -10.33392   -10.32422   -10.32404   -10.32140   -10.31867
    -1.09906    -1.04675    -1.00851    -0.96716    -0.94233    -0.91963
    -0.90355    -0.87705    -0.83758    -0.82700    -0.76962    -0.76363
    -0.75238    -0.74194    -0.72521    -0.68581    -0.67065    -0.64844
    -0.63230    -0.62417    -0.61056    -0.60215    -0.59426    -0.58328
    -0.56766    -0.56403    -0.55995    -0.55885    -0.54824    -0.54549
    -0.53131    -0.51076    -0.50513    -0.47978    -0.47677    -0.44742
    -0.43961    -0.41576    -0.39844    -0.38481    -0.34935    -0.32621
    -0.26570    -0.21840    -0.20320    -0.15603    -0.12772    -0.11547
    -0.08908    -0.03947    -0.02521    -0.02256
 
 
 Beta HOMO energy:    -0.32814
 Beta LUMO energy:    -0.27092
 
  Beta Orbital energies (hartrees): 
   -10.40196   -10.38873   -10.37586   -10.37315   -10.37172   -10.36439
   -10.35255   -10.35210   -10.34755   -10.34386   -10.34286   -10.34232
   -10.34005   -10.33430   -10.32329   -10.32324   -10.32100   -10.31854
    -1.09547    -1.04415    -1.00566    -0.96464    -0.93778    -0.91676
    -0.90074    -0.87497    -0.83136    -0.82484    -0.76689    -0.76101
    -0.75060    -0.73984    -0.71999    -0.68279    -0.66935    -0.64662
    -0.62944    -0.62179    -0.60822    -0.59878    -0.59285    -0.58116
    -0.56501    -0.56205    -0.55830    -0.55550    -0.54700    -0.54269
    -0.52881    -0.50976    -0.50058    -0.47911    -0.47526    -0.43857
    -0.42991    -0.41580    -0.39229    -0.37792    -0.32814    -0.27092
    -0.25560    -0.20533    -0.18843    -0.14440    -0.12933    -0.10845
    -0.08581    -0.03722    -0.02310
 
  
  
    Unrestricted Spin Properties ...
    Sz*(Sz+1)      0.750
    <S**2> ...     0.877
  
  
  Peak memory usage:   6747 Mb
  
  end of program scf
   
 Time(scf)  user:      242.4  user+sys:      242.4  wallclock:       17.2
  
  start of program der1a
  
  Peak memory usage:   4838 Mb
  
  end of program der1a
   
 Time(der1a)  user:        2.3  user+sys:        2.3  wallclock:        0.4
  
  start of program rwr
  
  Peak memory usage:   4745 Mb
  
  end of program rwr
   
 Time(rwr)  user:       17.4  user+sys:       17.4  wallclock:        2.9
  
  start of program der1b
  
   
  forces (hartrees/bohr) : total     
   
 atom  label           x              y              z
 ---- --------   -------------  -------------  -------------
    1 C1          6.538099E-03   2.744177E-02  -2.245422E-03
    2 C2          2.769043E-03  -2.580477E-02  -1.252116E-03
    3 C3         -2.678326E-02   6.542724E-04   4.301127E-03
    4 C4         -3.655255E-03  -3.676848E-02  -6.821186E-03
    5 C5         -4.280405E-03   3.285991E-03   4.548142E-03
    6 C6          8.233112E-07  -5.752653E-02  -1.373026E-02
    7 C7          2.994922E-03  -2.011541E-02   1.745599E-02
    8 C8         -8.595469E-02  -9.288588E-02   2.795641E-02
    9 C9          1.340243E-02   1.112046E-01   6.580730E-02
   10 C10        -4.733388E-02  -1.246091E-01  -6.501158E-02
   11 C11         5.746638E-02   7.996534E-02  -5.997502E-03
   12 C12         2.226322E-02  -1.695011E-02   4.349007E-02
   13 C13        -2.035590E-03   8.980751E-02  -6.307444E-03
   14 C14         3.043714E-02  -1.468245E-02  -2.349578E-02
   15 C15         1.062075E-02   4.436852E-02   3.794174E-03
   16 C16         1.560993E-02   1.384283E-03   1.224996E-02
   17 C17         9.316265E-03   3.334318E-02  -4.703249E-03
   18 C18        -2.229908E-02   4.282632E-03   4.109781E-03
   19 H19         1.892629E-03  -2.321668E-04  -8.758921E-04
   20 H20         1.141167E-03   1.642006E-03  -3.093125E-04
   21 H21         2.163175E-03   1.338131E-03  -3.079909E-03
   22 H22        -3.782119E-04  -3.024070E-03   2.285743E-03
   23 H23        -8.780315E-03  -8.854880E-03   3.294141E-03
   24 H24        -4.183342E-02  -7.187882E-03   1.599001E-02
   25 H25         2.629662E-02  -1.048461E-02  -4.623888E-03
   26 H26         1.098482E-02   2.358850E-02  -3.450929E-02
   27 H27         1.655055E-02  -3.234362E-03  -3.228766E-02
   28 H28         1.087126E-02  -4.679474E-03  -4.600879E-03
   29 H29         1.011832E-03   3.640790E-03   5.518001E-03
   30 H30         6.492573E-04   8.029538E-04  -1.695243E-03
 -------------   -------------  -------------  -------------
     total       -3.537961E-04  -2.897374E-04  -7.457409E-04
   
  Peak memory usage:   6740 Mb
  
  end of program der1b
   
 Time(der1b)  user:       31.7  user+sys:       31.7  wallclock:        2.6
  
  start of program geopt
  
 ----------------------------------------------------------------------------
  Geometry optimization step  1
  Total energy:      -692.37629066239 hartrees
 ----------------------------------------------------------------------------
  
  
  Level shifts adjusted to satisfy step-size constraints
   Step size:    0.3000500
   Cos(theta):   0.9895225
   Final level shift:  -8.0028148E-01
  
  gradient maximum:        1.3718E-01 .  (  4.5000E-04 )
  gradient rms:            3.3046E-02 .  (  3.0000E-04 )
  displacement maximum:    1.0855E-01 .  (  1.8000E-03 )
  displacement rms:        2.8869E-02 .  (  1.2000E-03 )
  
  predicted energy change:  -8.6996E-02
  step size:     0.30001
  trust radius:  0.30000
  
  molecular structure not yet converged...
  
  center of mass moved by:
     x:    -7.4730E-03     y:    -3.0827E-02     z:     1.9045E-02
  
  new geometry: 
                                   angstroms
  atom               x                 y                 z
  C1           -3.5720317605      0.8109737541      0.2373921210 
  C2           -3.6377357050     -0.5889516243      0.2461457732 
  C3           -2.4958068871     -1.3411725581     -0.0066999339 
  C4           -1.2638624884     -0.6888982818     -0.2386567620 
  C5           -0.0953830390     -1.4371605500     -0.4196135149 
  C6            1.1361432207     -0.8038871793     -0.1860686046 
  C7            2.1934342652     -1.6322668572      0.1963415377 
  C8            3.3134105249     -1.0304320012      0.7806959223 
  C9            4.3231312702     -1.7357254233      1.5022399363 
  C10           4.9974098280     -2.4952450464      0.5618616037 
  C11           5.7349846957     -1.4481701932     -0.0645835282 
  C12           5.1655688073      0.0052367139      0.0060373899 
  C13           3.7061240816      0.1783208022      0.2375415400 
  C14           2.5868418413      1.1455882553      0.0655925427 
  C15           1.2658090251      0.6056500038     -0.1387443102 
  C16           0.0806844638      1.3638767104     -0.3377115466 
  C17          -1.1819925753      0.7266784010     -0.2179055029 
  C18          -2.3658594200      1.4672378351     -0.0109775510 
  H19          -4.4638118937      1.3951807797      0.4447111734 
  H20          -4.5762619310     -1.0928912631      0.4569996643 
  H21          -2.5436957750     -2.4247245416      0.0356471454 
  H22          -0.1348027650     -2.5074869834     -0.5638679392 
  H23           2.0863062849     -2.7030717990      0.1707558339 
  H24           5.0598226490     -1.0891088737      2.0799124903 
  H25           4.4300622470     -3.3045863767      0.0835032652 
  H26           6.8071668297     -1.6156835127      0.1404620271 
  H27           5.8014037807      0.8435943051      0.3101007571 
  H28           2.7061114776      2.2272616143      0.0382017161 
  H29           0.1180808111      2.4323804427     -0.5075370795 
  H30          -2.3307590345      2.5498946571      0.0260360127 
   
  nuclear repulsion energy.......    1128.029342704 hartrees
  -------------------------------------------------
 /  end of geometry optimization iteration   1   /
 -------------------------------------------------
   
  Peak memory usage:   4725 Mb
  
  end of program geopt
   
 Time(geopt)  user:        5.9  user+sys:        5.9  wallclock:        0.7
  
  start of program onee
  
  smallest eigenvalue of S:    4.016E-04
  number of canonical orbitals.....          185
  Peak memory usage:   4838 Mb
  
  end of program onee
   
 Time(onee)  user:        2.0  user+sys:        2.0  wallclock:        0.4
  
  start of program probe
  
  Peak memory usage:   4756 Mb
  
  end of program probe
   
 Time(probe)  user:        1.5  user+sys:        1.5  wallclock:        0.4
  
  start of program grid
  
   grid     grid set  grid #  grid sym
  ------    --------  ------  --------
  coarse        0        0        1
  medium        2        1        1
  fine          0        0        1
  ultrafine     4        2        1
  charge       -1        3        1
  gradient      4        2        1
  density       0        0        1
  DFT-fine    -11        4        1
  DFT-med.    -10        5        1
  DFT-grad    -12        6        1
  DFT-der2      0        0        1
  DFT-cphf      0        0        1
  LMP2-enrg     4        2        1
  LMP2-grad     2        1        1
  DFT-cphf2     0        0        1
  PBF-dens      0        0        1
  plotting      0        0        1
  Rel-grad    -17        0        1
  
  number of gridpoints: 
     atom        C1       C2       C3       C4       C5       C6       C7
  grid # 1       97       97       97       98       97      100       96
  grid # 2      337      336      340      355      337      362      330
  grid # 3      230      229      232      234      216      236      184
  grid # 4     4304     4304     4304     4304     4304     4304     4304
  grid # 5     1192     1192     1192     1192     1192     1192     1192
  grid # 6     5226     5226     5226     5226     5226     5226     5226
   
  number of gridpoints: 
     atom        C8       C9      C10      C11      C12      C13      C14
  grid # 1       98       96       94       97       98      101       97
  grid # 2      354      351      345      357      352      369      341
  grid # 3      154      309      188      255      227      161      225
  grid # 4     4304     4304     4304     4304     4304     4304     4304
  grid # 5     1192     1192     1192     1192     1192     1192     1192
  grid # 6     5226     5226     5226     5226     5226     5226     5226
   
  number of gridpoints: 
     atom       C15      C16      C17      C18      H19      H20      H21
  grid # 1       98       97       97       97      118      118      118
  grid # 2      360      337      359      342      451      451      445
  grid # 3      238      226      247      232     1328     1334     1143
  grid # 4     4304     4304     4304     4304     4304     4304     4304
  grid # 5     1192     1192     1192     1192     1192     1192     1192
  grid # 6     5226     5226     5226     5226     5226     5226     5226
   
  number of gridpoints: 
     atom       H22      H23      H24      H25      H26      H27      H28
  grid # 1      114      112      112      115      113      116      118
  grid # 2      437      432      442      443      453      456      450
  grid # 3      928      803     1062     1154     1321     1242     1240
  grid # 4     4304     4304     4304     4304     4304     4304     4304
  grid # 5     1192     1192     1192     1192     1192     1192     1192
  grid # 6     5226     5226     5226     5226     5226     5226     5226
   
  number of gridpoints: 
     atom       H29      H30    total
  grid # 1      115      118     3139
  grid # 2      442      445    11611
  grid # 3     1022     1148    17748
  grid # 4     4304     4304   129120
  grid # 5     1192     1192    35760
  grid # 6     5226     5226   156780
   
  Peak memory usage:   4784 Mb
  
  end of program grid
   
 Time(grid)  user:       11.7  user+sys:       11.7  wallclock:        1.3
  
  start of program rwr
  
  Peak memory usage:   4745 Mb
  
  end of program rwr
   
 Time(rwr)  user:       32.1  user+sys:       32.1  wallclock:        2.9
  
  start of program scf
  
 Energy computed with NOPS off.
  
       i  u  d  i  g                   
       t  p  i  c  r                                 RMS    maximum
       e  d  i  u  i                       energy  density   DIIS  
       r  t  s  t  d       total energy    change  change    error 
  
etot    1  N  N  2  U    -692.43561979745           1.3E-03  9.8E-03
etot    2  Y  Y  6  M    -692.45764995421  2.2E-02  8.4E-04  4.4E-03
etot    3  N  Y  2  U    -692.45090751607 -6.7E-03  6.8E-04  1.2E-02
etot    4  N  Y  2  U    -692.45949784474  8.6E-03  1.8E-04  3.4E-03
etot    5  Y  Y  6  M    -692.45998419069  4.9E-04  6.9E-05  8.7E-04
etot    6  Y  Y  6  M    -692.46002596262  4.2E-05  4.7E-05  5.1E-04
etot    7  N  Y  2  U    -692.46011896380  9.3E-05  4.8E-05  3.7E-04
etot    8  N  Y  2  U    -692.46014518739  2.6E-05  5.9E-05  3.0E-04
etot    9  Y  Y  6  M    -692.46017163663  2.6E-05  8.3E-05  2.5E-04
etot   10  Y  Y  6  M    -692.46020003213  2.8E-05  5.6E-05  2.1E-04
etot   11  Y  Y  6  M    -692.46021761034  1.8E-05  5.1E-05  1.5E-04
etot   12  Y  Y  6  M    -692.46023147117  1.4E-05  5.8E-05  1.4E-04
etot   13  N  Y  2  U    -692.46024873339  1.7E-05  4.3E-05  1.0E-04
etot   14  N  Y  2  U    -692.46025681951  8.1E-06  7.6E-05  9.1E-05
etot   15  Y  Y  6  M    -692.46026554205  8.7E-06  4.0E-05  1.1E-04
etot   16  N  Y  2  U    -692.46027083277  5.3E-06  3.6E-05  5.6E-05
etot   17  N  Y  2  U    -692.46027275037  1.9E-06  1.1E-05  4.9E-05
etot   18  N  Y  2  U    -692.46027332296  5.7E-07  2.6E-05  3.7E-05
etot   19  N  Y  2  U    -692.46027399911  6.8E-07  2.9E-06  3.8E-05
etot   20  N  N  2  U    -692.46027408581  8.7E-08  0.0E+00  0.0E+00
  
  
 Energy components, in hartrees:
   (A)  Nuclear repulsion............    1128.02934270428
   (E)  Total one-electron terms.....   -3154.97063862867
   (I)  Total two-electron terms.....    1334.48102183858
   (L)  Electronic energy............   -1820.48961679008  (E+I)
   (N)  Total energy.................    -692.46027408581  (A+L)
   (O)  Gas phase energy.............    -692.46027408581
  
                                 Total             Coulomb       Exchange+Corr.
 Total two-electron terms    1334.48102183858    1436.26707636017    -101.78605452159
   Hamiltonian  1........     687.18767827917     723.45360384157     -36.26592556240
   Hamiltonian  2........     676.91106151632     712.81347251860     -35.90241100228
  
 SCFE: SCF energy: UDFT(b3lyp)      -692.46027408581 hartrees   iterations:  20
  
 
 Alpha HOMO energy:    -0.32694
 Alpha LUMO energy:    -0.26515
 
  Alpha Orbital energies (hartrees): 
   -10.39750   -10.38818   -10.37340   -10.37041   -10.36934   -10.36797
   -10.36198   -10.35611   -10.35125   -10.34975   -10.34618   -10.34574
   -10.33991   -10.33628   -10.32377   -10.32368   -10.32050   -10.31891
    -1.07767    -1.03554    -0.99745    -0.95336    -0.94064    -0.91245
    -0.89870    -0.87604    -0.83609    -0.82463    -0.76333    -0.75680
    -0.75168    -0.73657    -0.71977    -0.68033    -0.66583    -0.64652
    -0.62941    -0.61927    -0.60677    -0.60032    -0.59206    -0.58360
    -0.56354    -0.55946    -0.55915    -0.55699    -0.54592    -0.54013
    -0.53425    -0.50901    -0.50195    -0.47808    -0.47576    -0.44612
    -0.43952    -0.41592    -0.39724    -0.38417    -0.35099    -0.32694
    -0.26515    -0.21764    -0.19947    -0.15285    -0.13032    -0.11286
    -0.08926    -0.03289    -0.01820    -0.01576
 
 
 Beta HOMO energy:    -0.33149
 Beta LUMO energy:    -0.27195
 
  Beta Orbital energies (hartrees): 
   -10.39673   -10.38632   -10.37245   -10.37133   -10.37044   -10.36785
   -10.35541   -10.35271   -10.35169   -10.34814   -10.34697   -10.34265
   -10.33979   -10.33704   -10.32340   -10.32235   -10.31977   -10.31909
    -1.07391    -1.03290    -0.99458    -0.94988    -0.93629    -0.90942
    -0.89640    -0.87427    -0.83136    -0.82075    -0.76041    -0.75466
    -0.74981    -0.73472    -0.71510    -0.67733    -0.66445    -0.64466
    -0.62695    -0.61652    -0.60428    -0.59716    -0.59083    -0.58137
    -0.56153    -0.55783    -0.55756    -0.55306    -0.54354    -0.53731
    -0.53142    -0.50808    -0.49727    -0.47695    -0.47479    -0.43772
    -0.43105    -0.41310    -0.38998    -0.37752    -0.33149    -0.27195
    -0.25255    -0.20433    -0.18563    -0.14311    -0.13010    -0.10612
    -0.08534    -0.03040    -0.01613
 
  
  
    Unrestricted Spin Properties ...
    Sz*(Sz+1)      0.750
    <S**2> ...     0.812
  
  
  Peak memory usage:   6747 Mb
  
  end of program scf
   
 Time(scf)  user:      214.7  user+sys:      214.7  wallclock:       15.6
  
  start of program der1a
  
  Peak memory usage:   4838 Mb
  
  end of program der1a
   
 Time(der1a)  user:        1.5  user+sys:        1.5  wallclock:        0.4
  
  start of program rwr
  
  Peak memory usage:   4745 Mb
  
  end of program rwr
   
 Time(rwr)  user:       23.9  user+sys:       23.9  wallclock:        2.8
  
  start of program der1b
  
   
  forces (hartrees/bohr) : total     
   
 atom  label           x              y              z
 ---- --------   -------------  -------------  -------------
    1 C1          4.574170E-03   1.712502E-02  -1.302716E-03
    2 C2          2.404334E-03  -1.611117E-02  -1.204325E-03
    3 C3         -1.633448E-02   2.969967E-03   1.584666E-03
    4 C4         -2.845705E-03  -2.355994E-02  -5.194561E-03
    5 C5          3.172531E-05   8.189974E-03   7.493291E-03
    6 C6         -4.339173E-03  -3.419204E-02  -9.667616E-03
    7 C7          1.857076E-03  -3.463018E-03   1.484138E-02
    8 C8         -5.603576E-02  -6.955097E-02   4.971969E-03
    9 C9          2.068110E-02   6.347223E-02   2.635566E-02
   10 C10        -3.461313E-02  -5.023937E-02  -3.909158E-02
   11 C11         3.052783E-02   6.563554E-02   1.975849E-02
   12 C12         1.145254E-02  -3.229664E-02   4.242078E-02
   13 C13        -6.658384E-03   6.122935E-02   2.524827E-03
   14 C14         3.309340E-02  -2.300760E-02  -1.916281E-02
   15 C15         5.442287E-03   2.826403E-02   2.076452E-03
   16 C16         1.044322E-02  -4.933191E-03   1.148212E-02
   17 C17         6.401563E-03   2.063146E-02  -5.377642E-03
   18 C18        -1.469529E-02   1.485856E-03   2.503681E-03
   19 H19         9.374440E-04  -7.222736E-04  -7.035146E-04
   20 H20         6.747143E-04   1.466489E-03  -1.791057E-04
   21 H21         1.486360E-03   6.257544E-04  -2.641495E-03
   22 H22        -9.956261E-04  -2.680483E-03   2.460610E-03
   23 H23        -5.152935E-03  -5.589387E-03   4.685972E-03
   24 H24        -3.014358E-02  -1.399388E-02   6.327776E-03
   25 H25         2.139948E-02  -4.982866E-03  -1.606605E-03
   26 H26         1.666186E-03   1.525034E-02  -3.134468E-02
   27 H27         9.237731E-03  -9.759783E-04  -3.082555E-02
   28 H28         6.853022E-03  -3.270526E-03  -5.139041E-03
   29 H29         1.418104E-03   2.727341E-03   5.367121E-03
   30 H30         9.689262E-04   5.912924E-04  -1.635655E-03
 -------------   -------------  -------------  -------------
     total       -2.628480E-04   9.530983E-05  -2.220986E-04
   
  Peak memory usage:   6740 Mb
  
  end of program der1b
   
 Time(der1b)  user:       28.5  user+sys:       28.5  wallclock:        2.3
  
  start of program geopt
  
 ----------------------------------------------------------------------------
  Geometry optimization step  2
  Total energy:      -692.46027408581 hartrees
 ----------------------------------------------------------------------------
  
  
  Level shifts adjusted to satisfy step-size constraints
   Step size:    0.3000708
   Cos(theta):   0.9704576
   Final level shift:  -5.1513008E-01
  
  energy change:          -8.3983E-02 .  (  5.0000E-05 )
  gradient maximum:        6.1989E-02 .  (  4.5000E-04 )
  gradient rms:            2.1803E-02 .  (  3.0000E-04 )
  displacement maximum:    9.6642E-02 .  (  1.8000E-03 )
  displacement rms:        2.8870E-02 .  (  1.2000E-03 )
  
  predicted energy change:  -5.6184E-02
  step size:     0.30002
  trust radius:  0.30000
  
  molecular structure not yet converged...
  
  center of mass moved by:
     x:    -6.5667E-03     y:    -3.2237E-02     z:     2.1565E-02
  
  new geometry: 
                                   angstroms
  atom               x                 y                 z
  C1           -3.5643899903      0.9161366828      0.1680634146 
  C2           -3.6865096744     -0.4872217002      0.1885280163 
  C3           -2.5722186419     -1.2883241067     -0.0227162836 
  C4           -1.2990596249     -0.6982512155     -0.2289440842 
  C5           -0.1471952468     -1.4923627722     -0.3769690732 
  C6            1.1192387233     -0.9175080259     -0.1462165412 
  C7            2.1806563167     -1.7608736701      0.2402935920 
  C8            3.2981375694     -1.1326119862      0.8111993556 
  C9            4.3972534563     -1.7441782720      1.4963246173 
  C10           5.1286717555     -2.4109958353      0.4925374369 
  C11           5.7711297392     -1.2709686941     -0.1236462514 
  C12           5.1187986711      0.0858034309      0.0255818172 
  C13           3.6611131202      0.1299883168      0.2898495096 
  C14           2.5783072925      1.0634510223      0.1015481103 
  C15           1.2702588888      0.5103521710     -0.1017930706 
  C16           0.1227577262      1.3084180524     -0.3060294256 
  C17          -1.1661850615      0.7261849071     -0.2143344743 
  C18          -2.3294529008      1.5176924143     -0.0490016299 
  H19          -4.4379333898      1.5361688837      0.3418699300 
  H20          -4.6509607554     -0.9479631377      0.3755313412 
  H21          -2.6633140584     -2.3685739477      0.0224132546 
  H22          -0.2265725233     -2.5639407064     -0.5077675307 
  H23           2.0532921371     -2.8334000980      0.2399647798 
  H24           5.0474394753     -1.0517830193      2.0880460628 
  H25           4.6915360902     -3.2778075697     -0.0096968538 
  H26           6.8676258371     -1.3097012683     -0.0563431928 
  H27           5.7209683751      0.9677316195      0.2541050162 
  H28           2.7110980096      2.1420892529      0.0778900805 
  H29           0.2078179347      2.3780449893     -0.4586534072 
  H30          -2.2475686289      2.5985861621     -0.0261650368 
   
  nuclear repulsion energy.......    1124.777616925 hartrees
  -------------------------------------------------
 /  end of geometry optimization iteration   2   /
 -------------------------------------------------
   
  Peak memory usage:   4726 Mb
  
  end of program geopt
   
 Time(geopt)  user:        6.0  user+sys:        6.0  wallclock:        0.5
  
  start of program onee
  
  smallest eigenvalue of S:    3.977E-04
  number of canonical orbitals.....          185
  Peak memory usage:   4838 Mb
  
  end of program onee
   
 Time(onee)  user:        1.3  user+sys:        1.3  wallclock:        0.4
  
  start of program probe
  
  Peak memory usage:   4756 Mb
  
  end of program probe
   
 Time(probe)  user:        1.1  user+sys:        1.1  wallclock:        0.4
  
  start of program grid
  
   grid     grid set  grid #  grid sym
  ------    --------  ------  --------
  coarse        0        0        1
  medium        2        1        1
  fine          0        0        1
  ultrafine     4        2        1
  charge       -1        3        1
  gradient      4        2        1
  density       0        0        1
  DFT-fine    -11        4        1
  DFT-med.    -10        5        1
  DFT-grad    -12        6        1
  DFT-der2      0        0        1
  DFT-cphf      0        0        1
  LMP2-enrg     4        2        1
  LMP2-grad     2        1        1
  DFT-cphf2     0        0        1
  PBF-dens      0        0        1
  plotting      0        0        1
  Rel-grad    -17        0        1
  
  number of gridpoints: 
     atom        C1       C2       C3       C4       C5       C6       C7
  grid # 1       97       97       97       99       97      101       95
  grid # 2      339      339      340      362      339      364      334
  grid # 3      228      229      234      245      219      249      185
  grid # 4     4304     4304     4304     4304     4304     4304     4304
  grid # 5     1192     1192     1192     1192     1192     1192     1192
  grid # 6     5226     5226     5226     5226     5226     5226     5226
   
  number of gridpoints: 
     atom        C8       C9      C10      C11      C12      C13      C14
  grid # 1       98       97       96       96       97      101       96
  grid # 2      359      354      346      350      350      363      335
  grid # 3      168      301      188      233      198      150      225
  grid # 4     4304     4304     4304     4304     4304     4304     4304
  grid # 5     1192     1192     1192     1192     1192     1192     1192
  grid # 6     5226     5226     5226     5226     5226     5226     5226
   
  number of gridpoints: 
     atom       C15      C16      C17      C18      H19      H20      H21
  grid # 1      100       97      101       97      118      118      118
  grid # 2      364      337      367      340      451      451      445
  grid # 3      239      227      249      232     1328     1335     1148
  grid # 4     4304     4304     4304     4304     4304     4304     4304
  grid # 5     1192     1192     1192     1192     1192     1192     1192
  grid # 6     5226     5226     5226     5226     5226     5226     5226
   
  number of gridpoints: 
     atom       H22      H23      H24      H25      H26      H27      H28
  grid # 1      114      114      113      115      116      116      118
  grid # 2      440      438      444      452      454      455      451
  grid # 3      950      907     1090     1229     1344     1227     1185
  grid # 4     4304     4304     4304     4304     4304     4304     4304
  grid # 5     1192     1192     1192     1192     1192     1192     1192
  grid # 6     5226     5226     5226     5226     5226     5226     5226
   
  number of gridpoints: 
     atom       H29      H30    total
  grid # 1      114      118     3151
  grid # 2      438      445    11646
  grid # 3      992     1147    17881
  grid # 4     4304     4304   129120
  grid # 5     1192     1192    35760
  grid # 6     5226     5226   156780
   
  Peak memory usage:   4784 Mb
  
  end of program grid
   
 Time(grid)  user:       12.7  user+sys:       12.7  wallclock:        1.3
  
  start of program rwr
  
  Peak memory usage:   4745 Mb
  
  end of program rwr
   
 Time(rwr)  user:       32.1  user+sys:       32.1  wallclock:        2.9
  
  start of program scf
  
 Energy computed with NOPS off.
  
       i  u  d  i  g                   
       t  p  i  c  r                                 RMS    maximum
       e  d  i  u  i                       energy  density   DIIS  
       r  t  s  t  d       total energy    change  change    error 
  
etot    1  N  N  2  U    -692.49105106467           1.2E-03  7.9E-03
etot    2  Y  Y  6  M    -692.51396287548  2.3E-02  7.0E-04  3.7E-03
etot    3  N  Y  2  U    -692.51019210546 -3.8E-03  5.3E-04  9.7E-03
etot    4  Y  Y  6  M    -692.51569104333  5.5E-03  1.7E-04  3.3E-03
etot    5  N  Y  2  U    -692.51613352445  4.4E-04  8.0E-05  1.0E-03
etot    6  Y  Y  6  M    -692.51622525853  9.2E-05  6.1E-05  6.1E-04
etot    7  Y  Y  6  M    -692.51628638451  6.1E-05  8.5E-05  7.1E-04
etot    8  Y  Y  6  M    -692.51635455529  6.8E-05  1.0E-04  5.4E-04
etot    9  Y  Y  6  M    -692.51643559044  8.1E-05  2.2E-04  4.8E-04
etot   10  N  Y  2  U    -692.51658524112  1.5E-04  2.5E-04  3.8E-04
etot   11  Y  Y  6  M    -692.51670858522  1.2E-04  2.2E-04  2.8E-04
etot   12  Y  Y  6  M    -692.51677739865  6.9E-05  1.2E-04  3.0E-04
etot   13  Y  Y  6  M    -692.51680466651  2.7E-05  1.9E-05  2.4E-04
etot   14  N  Y  2  U    -692.51681332501  8.7E-06  5.7E-05  1.9E-04
etot   15  Y  Y  6  M    -692.51682079641  7.5E-06  3.2E-05  1.5E-04
etot   16  N  Y  2  U    -692.51682731926  6.5E-06  6.2E-05  1.2E-04
etot   17  Y  Y  6  M    -692.51683205326  4.7E-06  3.8E-05  1.5E-04
etot   18  N  Y  2  U    -692.51683640433  4.4E-06  1.6E-05  4.5E-05
etot   19  N  Y  2  U    -692.51683712996  7.3E-07  1.4E-05  9.8E-05
etot   20  N  Y  2  U    -692.51683694915 -1.8E-07  3.3E-05  5.3E-05
etot   21  N  Y  2  U    -692.51683848517  1.5E-06  1.3E-05  4.0E-05
etot   22  N  Y  2  U    -692.51683895955  4.7E-07  8.0E-06  3.2E-05
etot   23  N  Y  2  U    -692.51683919044  2.3E-07  8.4E-06  3.3E-05
etot   24  N  Y  2  U    -692.51683939348  2.0E-07  2.9E-06  1.9E-05
etot   25  N  N  2  U    -692.51683933842 -5.5E-08  0.0E+00  0.0E+00
  
  
 Energy components, in hartrees:
   (A)  Nuclear repulsion............    1124.77761692499
   (E)  Total one-electron terms.....   -3148.72517039657
   (I)  Total two-electron terms.....    1331.43071413316
   (L)  Electronic energy............   -1817.29445626341  (E+I)
   (N)  Total energy.................    -692.51683933842  (A+L)
   (O)  Gas phase energy.............    -692.51683933842
  
                                 Total             Coulomb       Exchange+Corr.
 Total two-electron terms    1331.43071413316    1433.19526315595    -101.76454902279
   Hamiltonian  1........     685.73005188183     721.98745188527     -36.25740000344
   Hamiltonian  2........     675.31206094223     711.20781127067     -35.89575032845
  
 SCFE: SCF energy: UDFT(b3lyp)      -692.51683933842 hartrees   iterations:  25
  
 
 Alpha HOMO energy:    -0.33142
 Alpha LUMO energy:    -0.25808
 
  Alpha Orbital energies (hartrees): 
   -10.38127   -10.37622   -10.36966   -10.36812   -10.36686   -10.36463
   -10.36053   -10.35855   -10.35179   -10.35033   -10.34955   -10.34912
   -10.34115   -10.33939   -10.32670   -10.32655   -10.32255   -10.32150
    -1.06635    -1.03067    -0.99306    -0.94754    -0.94199    -0.91140
    -0.89352    -0.87724    -0.83903    -0.82222    -0.76105    -0.75426
    -0.75223    -0.73363    -0.71381    -0.67804    -0.66422    -0.64690
    -0.62995    -0.61682    -0.60621    -0.59983    -0.59158    -0.58444
    -0.56183    -0.56085    -0.55613    -0.55606    -0.54441    -0.53790
    -0.53303    -0.50869    -0.50141    -0.48069    -0.47547    -0.44748
    -0.44243    -0.41591    -0.39789    -0.38527    -0.34787    -0.33142
    -0.25808    -0.21632    -0.18566    -0.15124    -0.12961    -0.11283
    -0.08622    -0.02681    -0.01589    -0.01071
 
 
 Beta HOMO energy:    -0.33782
 Beta LUMO energy:    -0.27657
 
  Beta Orbital energies (hartrees): 
   -10.38249   -10.37061   -10.36962   -10.36687   -10.36625   -10.36471
   -10.35996   -10.35465   -10.35079   -10.35049   -10.35008   -10.34556
   -10.34095   -10.34028   -10.32628   -10.32504   -10.32193   -10.32147
    -1.06232    -1.02783    -0.99041    -0.94408    -0.93745    -0.90802
    -0.89251    -0.87486    -0.83406    -0.81796    -0.75819    -0.75250
    -0.74965    -0.73097    -0.71145    -0.67500    -0.66242    -0.64505
    -0.62751    -0.61477    -0.60370    -0.59810    -0.59024    -0.58269
    -0.56034    -0.55922    -0.55444    -0.55128    -0.54122    -0.53469
    -0.53011    -0.50759    -0.49668    -0.47913    -0.47489    -0.43937
    -0.43412    -0.40904    -0.39170    -0.37434    -0.33782    -0.27657
    -0.23703    -0.20086    -0.18188    -0.14163    -0.12733    -0.10497
    -0.08140    -0.02481    -0.01449
 
  
  
    Unrestricted Spin Properties ...
    Sz*(Sz+1)      0.750
    <S**2> ...     0.815
  
  
  Peak memory usage:   6747 Mb
  
  end of program scf
   
 Time(scf)  user:      240.8  user+sys:      240.8  wallclock:       16.9
  
  start of program der1a
  
  Peak memory usage:   4838 Mb
  
  end of program der1a
   
 Time(der1a)  user:        2.1  user+sys:        2.1  wallclock:        0.5
  
  start of program rwr
  
  Peak memory usage:   4745 Mb
  
  end of program rwr
   
 Time(rwr)  user:       20.8  user+sys:       20.8  wallclock:        2.8
  
  start of program der1b
  
   
  forces (hartrees/bohr) : total     
   
 atom  label           x              y              z
 ---- --------   -------------  -------------  -------------
    1 C1          8.009997E-04   6.922339E-03  -3.787182E-04
    2 C2          4.986252E-04  -6.559470E-03  -5.839482E-04
    3 C3         -6.001611E-03   1.940952E-03  -7.397938E-04
    4 C4         -4.396923E-03  -1.150857E-02  -3.433707E-03
    5 C5          5.272834E-03   5.755272E-03   8.637528E-03
    6 C6         -8.353942E-03  -1.607921E-02  -6.602464E-03
    7 C7          4.329953E-04   6.022837E-03   1.452794E-02
    8 C8         -3.827314E-02  -4.862141E-02  -9.195429E-03
    9 C9          1.318937E-02   2.507880E-02   1.922048E-02
   10 C10        -2.618257E-02  -5.269055E-03  -2.879834E-02
   11 C11         2.386971E-02   5.269934E-02   2.742645E-02
   12 C12         1.392490E-02  -3.777439E-02   3.353998E-02
   13 C13        -2.172528E-03   3.955209E-02   4.339708E-03
   14 C14         2.680859E-02  -2.172438E-02  -1.443591E-02
   15 C15        -7.865531E-04   1.841452E-02  -1.918730E-04
   16 C16         6.457687E-03  -6.491598E-03   1.032150E-02
   17 C17         1.160898E-04   1.005690E-02  -5.729151E-03
   18 C18        -5.145594E-03   4.356204E-04   1.097509E-03
   19 H19         3.210388E-04  -7.087423E-04  -6.443534E-04
   20 H20         2.824130E-04   1.153740E-03  -1.094928E-04
   21 H21         5.887241E-04   1.027054E-04  -2.196887E-03
   22 H22        -1.672524E-03  -1.980360E-03   2.281292E-03
   23 H23        -2.361597E-03  -2.861324E-03   4.216887E-03
   24 H24        -2.023682E-02  -1.311206E-02   4.149835E-03
   25 H25         1.655583E-02  -3.299090E-03  -1.429707E-04
   26 H26        -2.724136E-03   6.833795E-03  -2.845981E-02
   27 H27         3.295685E-03   6.296898E-04  -2.657390E-02
   28 H28         3.798551E-03  -1.813824E-03  -5.531262E-03
   29 H29         1.441003E-03   1.847572E-03   4.912988E-03
   30 H30         9.120908E-04   4.188790E-04  -1.432357E-03
 -------------   -------------  -------------  -------------
     total        2.592045E-04   6.156127E-05  -5.082618E-04
   
  Peak memory usage:   6740 Mb
  
  end of program der1b
   
 Time(der1b)  user:       33.5  user+sys:       33.5  wallclock:        2.7
  
  start of program geopt
  
 ----------------------------------------------------------------------------
  Geometry optimization step  3
  Total energy:      -692.51683933842 hartrees
 ----------------------------------------------------------------------------
  
  
  Level shifts adjusted to satisfy step-size constraints
   Step size:    0.3000909
   Cos(theta):   0.9774319
   Final level shift:  -3.8676748E-01
  
  energy change:          -5.6565E-02 .  (  5.0000E-05 )
  gradient maximum:        5.0311E-02 .  (  4.5000E-04 )
  gradient rms:            1.5196E-02 .  (  3.0000E-04 )
  displacement maximum:    1.0423E-01 .  (  1.8000E-03 )
  displacement rms:        2.8873E-02 .  (  1.2000E-03 )
  
  predicted energy change:  -4.0578E-02
  step size:     0.30006
  trust radius:  0.30000
  
  molecular structure not yet converged...
  
  center of mass moved by:
     x:    -3.5681E-03     y:    -2.5365E-02     z:     2.5219E-02
  
  new geometry: 
                                   angstroms
  atom               x                 y                 z
  C1           -3.5591796474      0.9934071558      0.0905979392 
  C2           -3.7226134563     -0.4083102967      0.1246908461 
  C3           -2.6267435834     -1.2453488414     -0.0408276930 
  C4           -1.3268505992     -0.7016736830     -0.2175746103 
  C5           -0.1859039269     -1.5280807235     -0.3266021156 
  C6            1.1009707870     -0.9967973867     -0.0993425264 
  C7            2.1651626888     -1.8533392625      0.2913843403 
  C8            3.2878276029     -1.2255995200      0.8477818136 
  C9            4.4581201587     -1.7647162793      1.4996132120 
  C10           5.2169293360     -2.3139948948      0.4215884674 
  C11           5.7910436259     -1.1189384763     -0.1852376275 
  C12           5.0855263644      0.1369468753      0.0379029815 
  C13           3.6357926037      0.0757158481      0.3397613303 
  C14           2.5843735637      0.9868696411      0.1363467131 
  C15           1.2734413816      0.4397831634     -0.0607841276 
  C16           0.1546420398      1.2638435813     -0.2726687198 
  C17          -1.1558757147      0.7249491288     -0.2123621033 
  C18          -2.3005446311      1.5530957910     -0.0932856625 
  H19          -4.4202836560      1.6387056934      0.2266361309 
  H20          -4.7065536352     -0.8350530157      0.2855262139 
  H21          -2.7500580480     -2.3221645175      0.0077029344 
  H22          -0.2963508097     -2.6005877062     -0.4399688820 
  H23           2.0208038008     -2.9257792854      0.3144107892 
  H24           5.0366991902     -1.0530113882      2.1111680769 
  H25           4.8993829060     -3.2051234251     -0.1191661988 
  H26           6.8809223963     -1.0748006827     -0.2792346413 
  H27           5.6437747100      1.0599493224      0.1866405364 
  H28           2.7317712717      2.0625095274      0.1056387740 
  H29           0.2769326623      2.3331809737     -0.4086303725 
  H30          -2.1817738711      2.6312126664     -0.0865978998 
   
  nuclear repulsion energy.......    1122.740689052 hartrees
  -------------------------------------------------
 /  end of geometry optimization iteration   3   /
 -------------------------------------------------
   
  Peak memory usage:   4726 Mb
  
  end of program geopt
   
 Time(geopt)  user:        5.2  user+sys:        5.2  wallclock:        0.5
  
  start of program onee
  
  smallest eigenvalue of S:    3.899E-04
  number of canonical orbitals.....          185
  Peak memory usage:   4838 Mb
  
  end of program onee
   
 Time(onee)  user:        1.8  user+sys:        1.8  wallclock:        0.4
  
  start of program probe
  
  Peak memory usage:   4756 Mb
  
  end of program probe
   
 Time(probe)  user:        2.0  user+sys:        2.0  wallclock:        0.4
  
  start of program grid
  
   grid     grid set  grid #  grid sym
  ------    --------  ------  --------
  coarse        0        0        1
  medium        2        1        1
  fine          0        0        1
  ultrafine     4        2        1
  charge       -1        3        1
  gradient      4        2        1
  density       0        0        1
  DFT-fine    -11        4        1
  DFT-med.    -10        5        1
  DFT-grad    -12        6        1
  DFT-der2      0        0        1
  DFT-cphf      0        0        1
  LMP2-enrg     4        2        1
  LMP2-grad     2        1        1
  DFT-cphf2     0        0        1
  PBF-dens      0        0        1
  plotting      0        0        1
  Rel-grad    -17        0        1
  
  number of gridpoints: 
     atom        C1       C2       C3       C4       C5       C6       C7
  grid # 1       97       97       97       99       97       98       96
  grid # 2      339      339      339      363      341      366      336
  grid # 3      228      231      233      248      222      244      179
  grid # 4     4304     4304     4304     4304     4304     4304     4304
  grid # 5     1192     1192     1192     1192     1192     1192     1192
  grid # 6     5226     5226     5226     5226     5226     5226     5226
   
  number of gridpoints: 
     atom        C8       C9      C10      C11      C12      C13      C14
  grid # 1      100       98       97       96       96       99       96
  grid # 2      365      354      343      352      342      360      338
  grid # 3      171      306      186      202      158      141      224
  grid # 4     4304     4304     4304     4304     4304     4304     4304
  grid # 5     1192     1192     1192     1192     1192     1192     1192
  grid # 6     5226     5226     5226     5226     5226     5226     5226
   
  number of gridpoints: 
     atom       C15      C16      C17      C18      H19      H20      H21
  grid # 1       99       97      101       97      118      118      118
  grid # 2      365      340      368      340      451      451      445
  grid # 3      238      226      252      233     1332     1335     1150
  grid # 4     4304     4304     4304     4304     4304     4304     4304
  grid # 5     1192     1192     1192     1192     1192     1192     1192
  grid # 6     5226     5226     5226     5226     5226     5226     5226
   
  number of gridpoints: 
     atom       H22      H23      H24      H25      H26      H27      H28
  grid # 1      114      114      113      115      116      117      118
  grid # 2      439      443      443      455      457      454      448
  grid # 3      953      987     1129     1272     1377     1212     1139
  grid # 4     4304     4304     4304     4304     4304     4304     4304
  grid # 5     1192     1192     1192     1192     1192     1192     1192
  grid # 6     5226     5226     5226     5226     5226     5226     5226
   
  number of gridpoints: 
     atom       H29      H30    total
  grid # 1      114      118     3150
  grid # 2      438      445    11659
  grid # 3      985     1151    17944
  grid # 4     4304     4304   129120
  grid # 5     1192     1192    35760
  grid # 6     5226     5226   156780
   
  Peak memory usage:   4784 Mb
  
  end of program grid
   
 Time(grid)  user:       11.9  user+sys:       11.9  wallclock:        1.3
  
  start of program rwr
  
  Peak memory usage:   4745 Mb
  
  end of program rwr
   
 Time(rwr)  user:       24.4  user+sys:       24.4  wallclock:        2.8
  
  start of program scf
  
 Energy computed with NOPS off.
  
       i  u  d  i  g                   
       t  p  i  c  r                                 RMS    maximum
       e  d  i  u  i                       energy  density   DIIS  
       r  t  s  t  d       total energy    change  change    error 
  
etot    1  N  N  2  U    -692.53444432446           1.0E-03  9.1E-03
etot    2  Y  Y  6  M    -692.55349425449  1.9E-02  5.8E-04  4.2E-03
etot    3  N  Y  2  U    -692.55205992128 -1.4E-03  4.1E-04  6.6E-03
etot    4  Y  Y  6  M    -692.55507999324  3.0E-03  1.5E-04  2.9E-03
etot    5  Y  Y  6  M    -692.55533784546  2.6E-04  9.1E-05  1.3E-03
etot    6  N  Y  2  U    -692.55553045122  1.9E-04  6.3E-05  7.0E-04
etot    7  Y  Y  6  M    -692.55560005066  7.0E-05  1.2E-04  8.8E-04
etot    8  Y  Y  6  M    -692.55570438733  1.0E-04  1.7E-04  5.0E-04
etot    9  Y  Y  6  M    -692.55581544277  1.1E-04  1.5E-04  4.2E-04
etot   10  Y  Y  6  M    -692.55588108536  6.6E-05  8.4E-05  2.9E-04
etot   11  N  Y  2  U    -692.55589666234  1.6E-05  2.5E-05  1.4E-04
etot   12  N  Y  2  U    -692.55589980999  3.1E-06  2.0E-05  9.7E-05
etot   13  N  Y  2  U    -692.55590112337  1.3E-06  1.1E-05  5.1E-05
etot   14  N  Y  2  U    -692.55590153392  4.1E-07  3.2E-06  3.5E-05
etot   15  N  N  2  U    -692.55590160933  7.5E-08  0.0E+00  0.0E+00
  
  
 Energy components, in hartrees:
   (A)  Nuclear repulsion............    1122.74068905195
   (E)  Total one-electron terms.....   -3144.82200642657
   (I)  Total two-electron terms.....    1329.52541576529
   (L)  Electronic energy............   -1815.29659066128  (E+I)
   (N)  Total energy.................    -692.55590160933  (A+L)
   (O)  Gas phase energy.............    -692.55590160933
  
                                 Total             Coulomb       Exchange+Corr.
 Total two-electron terms    1329.52541576529    1431.29866957628    -101.77325381099
   Hamiltonian  1........     684.81248152769     721.07297104873     -36.26048952104
   Hamiltonian  2........     674.32576373172     710.22569852755     -35.89993479583
  
 SCFE: SCF energy: UDFT(b3lyp)      -692.55590160933 hartrees   iterations:  15
  
 
 Alpha HOMO energy:    -0.33726
 Alpha LUMO energy:    -0.24886
 
  Alpha Orbital energies (hartrees): 
   -10.37026   -10.36668   -10.36636   -10.36609   -10.36144   -10.36110
   -10.36052   -10.35360   -10.35288   -10.35200   -10.35009   -10.34945
   -10.34240   -10.34178   -10.32985   -10.32957   -10.32511   -10.32392
    -1.05788    -1.02768    -0.99037    -0.94555    -0.94185    -0.91266
    -0.88790    -0.87983    -0.84211    -0.81882    -0.76015    -0.75664
    -0.75053    -0.73138    -0.70797    -0.67592    -0.66341    -0.64662
    -0.63113    -0.61514    -0.60555    -0.59897    -0.59096    -0.58482
    -0.56251    -0.56120    -0.55546    -0.55141    -0.54545    -0.53905
    -0.52846    -0.50773    -0.50113    -0.48313    -0.47555    -0.44911
    -0.44547    -0.41482    -0.39948    -0.38478    -0.34875    -0.33726
    -0.24886    -0.21580    -0.17048    -0.14985    -0.12634    -0.11330
    -0.08334    -0.02392    -0.01711    -0.01184
 
 
 Beta HOMO energy:    -0.34481
 Beta LUMO energy:    -0.28050
 
  Beta Orbital energies (hartrees): 
   -10.37149   -10.37009   -10.36799   -10.36042   -10.35980   -10.35751
   -10.35675   -10.35328   -10.35082   -10.34987   -10.34969   -10.34860
   -10.34274   -10.34224   -10.32889   -10.32829   -10.32436   -10.32393
    -1.05416    -1.02473    -0.98804    -0.94147    -0.93786    -0.90873
    -0.88836    -0.87646    -0.83584    -0.81619    -0.75776    -0.75475
    -0.74792    -0.72743    -0.70729    -0.67305    -0.66108    -0.64491
    -0.62875    -0.61340    -0.60336    -0.59808    -0.58966    -0.58336
    -0.56095    -0.55980    -0.55098    -0.54901    -0.54212    -0.53553
    -0.52598    -0.50650    -0.49667    -0.48156    -0.47496    -0.44214
    -0.43599    -0.40687    -0.39440    -0.37016    -0.34481    -0.28050
    -0.22296    -0.19797    -0.17406    -0.14009    -0.12425    -0.10423
    -0.07830    -0.02218    -0.01576
 
  
  
    Unrestricted Spin Properties ...
    Sz*(Sz+1)      0.750
    <S**2> ...     0.919
  
  
  Peak memory usage:   6747 Mb
  
  end of program scf
   
 Time(scf)  user:      148.9  user+sys:      148.9  wallclock:       10.8
  
  start of program der1a
  
  Peak memory usage:   4838 Mb
  
  end of program der1a
   
 Time(der1a)  user:        2.4  user+sys:        2.4  wallclock:        0.5
  
  start of program rwr
  
  Peak memory usage:   4745 Mb
  
  end of program rwr
   
 Time(rwr)  user:       20.8  user+sys:       20.8  wallclock:        2.8
  
  start of program der1b
  
   
  forces (hartrees/bohr) : total     
   
 atom  label           x              y              z
 ---- --------   -------------  -------------  -------------
    1 C1         -8.929170E-04   1.375737E-03  -1.274696E-04
    2 C2          5.041597E-05  -1.698614E-03  -3.218554E-04
    3 C3         -9.724507E-04   4.757430E-04  -1.978278E-03
    4 C4         -3.675728E-03  -4.377011E-03  -2.392219E-03
    5 C5          5.982951E-03   2.398089E-03   8.990261E-03
    6 C6         -8.364525E-03  -5.398609E-03  -3.905149E-03
    7 C7         -9.310247E-04   8.867160E-03   1.514712E-02
    8 C8         -2.047275E-02  -2.687445E-02  -1.836944E-02
    9 C9          6.355271E-03  -1.893393E-03   8.245421E-03
   10 C10        -1.618252E-02   1.316555E-02  -2.165221E-02
   11 C11         1.778106E-02   3.458009E-02   3.212545E-02
   12 C12         1.254857E-02  -3.004550E-02   2.451552E-02
   13 C13         4.317451E-03   2.252552E-02   6.300427E-03
   14 C14         1.317536E-02  -1.363616E-02  -1.039951E-02
   15 C15        -2.436035E-03   1.158269E-02  -1.517953E-03
   16 C16         3.251863E-03  -5.107250E-03   8.934943E-03
   17 C17        -2.242934E-03   4.055234E-03  -5.638808E-03
   18 C18        -4.494917E-05   2.379493E-04   7.281624E-04
   19 H19         1.153181E-04  -4.091237E-04  -6.111351E-04
   20 H20         1.379164E-04   6.682743E-04  -8.358546E-05
   21 H21        -8.993725E-06  -7.757094E-05  -1.795613E-03
   22 H22        -1.945377E-03  -1.200171E-03   2.029555E-03
   23 H23        -1.122212E-03  -1.426400E-03   3.241326E-03
   24 H24        -1.149049E-02  -8.894774E-03   4.190381E-03
   25 H25         1.117911E-02  -3.099622E-03   1.745582E-03
   26 H26        -5.512041E-03   9.378842E-04  -2.276644E-02
   27 H27        -1.890782E-03   2.430253E-03  -2.207691E-02
   28 H28         2.202688E-03  -8.231671E-04  -6.143123E-03
   29 H29         1.099945E-03   1.116959E-03   4.230546E-03
   30 H30         5.090562E-04   2.183027E-04  -1.127829E-03
 -------------   -------------  -------------  -------------
     total        5.212522E-04  -3.263747E-04  -4.828502E-04
   
  Peak memory usage:   6740 Mb
  
  end of program der1b
   
 Time(der1b)  user:       34.0  user+sys:       34.0  wallclock:        2.6
  
  start of program geopt
  
 ----------------------------------------------------------------------------
  Geometry optimization step  4
  Total energy:      -692.55590160933 hartrees
 ----------------------------------------------------------------------------
  
  
  Level shifts adjusted to satisfy step-size constraints
   Step size:    0.3000578
   Cos(theta):   0.9718143
   Final level shift:  -2.3837472E-01
  
  energy change:          -3.9062E-02 .  (  5.0000E-05 )
  gradient maximum:        3.9484E-02 .  (  4.5000E-04 )
  gradient rms:            9.9815E-03 .  (  3.0000E-04 )
  displacement maximum:    1.3132E-01 .  (  1.8000E-03 )
  displacement rms:        2.8872E-02 .  (  1.2000E-03 )
  
  predicted energy change:  -2.5855E-02
  step size:     0.30005
  trust radius:  0.30000
  
  molecular structure not yet converged...
  
  center of mass moved by:
     x:     2.3624E-04     y:    -1.7025E-02     z:     2.5796E-02
  
  new geometry: 
                                   angstroms
  atom               x                 y                 z
  C1           -3.5615880023      1.0426672968      0.0055226063 
  C2           -3.7506763970     -0.3558807705      0.0577654277 
  C3           -2.6646827512     -1.2153299177     -0.0547882562 
  C4           -1.3499232682     -0.6991686134     -0.1983369146 
  C5           -0.2154921311     -1.5447290102     -0.2609302040 
  C6            1.0817553947     -1.0390596101     -0.0452244887 
  C7            2.1485734746     -1.9068264458      0.3434332697 
  C8            3.2902614649     -1.3026498339      0.8717293439 
  C9            4.5128159031     -1.8142052702      1.4840358248 
  C10           5.2833384786     -2.2421976445      0.3467149407 
  C11           5.8078891702     -1.0051285623     -0.2266615635 
  C12           5.0675709259      0.1677029666      0.0520641157 
  C13           3.6290107902      0.0310797976      0.3803588510 
  C14           2.5940277742      0.9325980398      0.1653989819 
  C15           1.2726262678      0.4013307521     -0.0168136629 
  C16           0.1712558060      1.2385136415     -0.2351917764 
  C17          -1.1542040949      0.7272411118     -0.2082236039 
  C18          -2.2860963779      1.5770737542     -0.1423233757 
  H19          -4.4162727434      1.7034570763      0.0970696569 
  H20          -4.7477424481     -0.7604040142      0.1899144723 
  H21          -2.8090369294     -2.2893184257     -0.0005201097 
  H22          -0.3497399122     -2.6182320076     -0.3495406598 
  H23           1.9871181527     -2.9778393252      0.3888149541 
  H24           5.0481457697     -1.1130329926      2.1275823498 
  H25           5.0630743242     -3.1313685196     -0.2405850443 
  H26           6.8654734917     -0.9079214711     -0.4742099702 
  H27           5.5628207562      1.1330430764      0.1133914130 
  H28           2.7550271839      2.0053259754      0.1148515928 
  H29           0.3175441124      2.3076042902     -0.3545445622 
  H30          -2.1452388156      2.6527773700     -0.1551650198 
   
  nuclear repulsion energy.......    1120.641964324 hartrees
  -------------------------------------------------
 /  end of geometry optimization iteration   4   /
 -------------------------------------------------
   
  Peak memory usage:   4726 Mb
  
  end of program geopt
   
 Time(geopt)  user:        4.2  user+sys:        4.2  wallclock:        0.3
  
  start of program onee
  
  smallest eigenvalue of S:    3.774E-04
  number of canonical orbitals.....          185
  Peak memory usage:   4838 Mb
  
  end of program onee
   
 Time(onee)  user:        1.9  user+sys:        1.9  wallclock:        0.4
  
  start of program probe
  
  Peak memory usage:   4756 Mb
  
  end of program probe
   
 Time(probe)  user:        1.4  user+sys:        1.4  wallclock:        0.4
  
  start of program grid
  
   grid     grid set  grid #  grid sym
  ------    --------  ------  --------
  coarse        0        0        1
  medium        2        1        1
  fine          0        0        1
  ultrafine     4        2        1
  charge       -1        3        1
  gradient      4        2        1
  density       0        0        1
  DFT-fine    -11        4        1
  DFT-med.    -10        5        1
  DFT-grad    -12        6        1
  DFT-der2      0        0        1
  DFT-cphf      0        0        1
  LMP2-enrg     4        2        1
  LMP2-grad     2        1        1
  DFT-cphf2     0        0        1
  PBF-dens      0        0        1
  plotting      0        0        1
  Rel-grad    -17        0        1
  
  number of gridpoints: 
     atom        C1       C2       C3       C4       C5       C6       C7
  grid # 1       97       97       97      100       97      102       96
  grid # 2      339      339      339      367      344      363      337
  grid # 3      228      231      232      251      227      249      174
  grid # 4     4304     4304     4304     4304     4304     4304     4304
  grid # 5     1192     1192     1192     1192     1192     1192     1192
  grid # 6     5226     5226     5226     5226     5226     5226     5226
   
  number of gridpoints: 
     atom        C8       C9      C10      C11      C12      C13      C14
  grid # 1      101       98       96       95       96       99       96
  grid # 2      367      351      341      343      337      365      338
  grid # 3      174      307      177      169      133      144      219
  grid # 4     4304     4304     4304     4304     4304     4304     4304
  grid # 5     1192     1192     1192     1192     1192     1192     1192
  grid # 6     5226     5226     5226     5226     5226     5226     5226
   
  number of gridpoints: 
     atom       C15      C16      C17      C18      H19      H20      H21
  grid # 1       99       97       99       97      118      118      118
  grid # 2      365      340      365      340      451      451      445
  grid # 3      245      226      252      234     1335     1333     1155
  grid # 4     4304     4304     4304     4304     4304     4304     4304
  grid # 5     1192     1192     1192     1192     1192     1192     1192
  grid # 6     5226     5226     5226     5226     5226     5226     5226
   
  number of gridpoints: 
     atom       H22      H23      H24      H25      H26      H27      H28
  grid # 1      114      115      115      115      117      117      118
  grid # 2      437      444      444      457      457      451      447
  grid # 3      958     1048     1161     1320     1401     1209     1097
  grid # 4     4304     4304     4304     4304     4304     4304     4304
  grid # 5     1192     1192     1192     1192     1192     1192     1192
  grid # 6     5226     5226     5226     5226     5226     5226     5226
   
  number of gridpoints: 
     atom       H29      H30    total
  grid # 1      114      118     3156
  grid # 2      437      445    11646
  grid # 3      970     1153    18012
  grid # 4     4304     4304   129120
  grid # 5     1192     1192    35760
  grid # 6     5226     5226   156780
   
  Peak memory usage:   4784 Mb
  
  end of program grid
   
 Time(grid)  user:       11.9  user+sys:       11.9  wallclock:        1.4
  
  start of program rwr
  
  Peak memory usage:   4745 Mb
  
  end of program rwr
   
 Time(rwr)  user:       21.7  user+sys:       21.7  wallclock:        2.8
  
  start of program scf
  
 Energy computed with NOPS off.
  
       i  u  d  i  g                   
       t  p  i  c  r                                 RMS    maximum
       e  d  i  u  i                       energy  density   DIIS  
       r  t  s  t  d       total energy    change  change    error 
  
etot    1  N  N  2  U    -692.56549420264           8.6E-04  6.7E-03
etot    2  Y  Y  6  M    -692.57987220916  1.4E-02  4.3E-04  2.6E-03
etot    3  N  Y  2  U    -692.57938330878 -4.9E-04  2.8E-04  4.1E-03
etot    4  Y  Y  6  M    -692.58095196234  1.6E-03  8.4E-05  1.4E-03
etot    5  Y  Y  6  M    -692.58098957086  3.8E-05  5.2E-05  7.4E-04
etot    6  Y  Y  6  M    -692.58103468265  4.5E-05  2.7E-05  3.6E-04
etot    7  N  Y  2  U    -692.58105881521  2.4E-05  3.0E-05  3.4E-04
etot    8  N  Y  2  U    -692.58106791004  9.1E-06  2.9E-05  1.8E-04
etot    9  N  Y  2  U    -692.58107419848  6.3E-06  3.1E-05  1.3E-04
etot   10  N  Y  2  U    -692.58107888862  4.7E-06  1.4E-05  7.3E-05
etot   11  N  Y  2  U    -692.58108008991  1.2E-06  1.3E-05  4.7E-05
etot   12  N  Y  2  U    -692.58108066799  5.8E-07  6.0E-06  2.4E-05
etot   13  N  Y  2  U    -692.58108080432  1.4E-07  1.3E-06  1.4E-05
etot   14  N  N  2  U    -692.58108085356  4.9E-08  0.0E+00  0.0E+00
  
  
 Energy components, in hartrees:
   (A)  Nuclear repulsion............    1120.64196432403
   (E)  Total one-electron terms.....   -3140.74456766248
   (I)  Total two-electron terms.....    1327.52152248489
   (L)  Electronic energy............   -1813.22304517759  (E+I)
   (N)  Total energy.................    -692.58108085356  (A+L)
   (O)  Gas phase energy.............    -692.58108085356
  
                                 Total             Coulomb       Exchange+Corr.
 Total two-electron terms    1327.52152248489    1429.30236005562    -101.78083757073
   Hamiltonian  1........     683.77022771989     720.03372702340     -36.26349930352
   Hamiltonian  2........     673.36572294927     709.26863303221     -35.90291008294
  
 SCFE: SCF energy: UDFT(b3lyp)      -692.58108085356 hartrees   iterations:  14
  
 
 Alpha HOMO energy:    -0.34123
 Alpha LUMO energy:    -0.24553
 
  Alpha Orbital energies (hartrees): 
   -10.36999   -10.36664   -10.36405   -10.36154   -10.35925   -10.35900
   -10.35792   -10.35413   -10.35258   -10.35239   -10.34901   -10.34476
   -10.34242   -10.34206   -10.33053   -10.33015   -10.32558   -10.32442
    -1.05242    -1.02524    -0.98855    -0.94465    -0.94088    -0.91387
    -0.88574    -0.88144    -0.84382    -0.81555    -0.75894    -0.75827
    -0.74965    -0.72999    -0.70580    -0.67407    -0.66274    -0.64574
    -0.63272    -0.61417    -0.60439    -0.59848    -0.58962    -0.58525
    -0.56261    -0.56061    -0.55437    -0.54975    -0.54764    -0.53732
    -0.52655    -0.50584    -0.50038    -0.48354    -0.47462    -0.44960
    -0.44842    -0.41485    -0.40095    -0.38291    -0.35284    -0.34123
    -0.24553    -0.21438    -0.16259    -0.14741    -0.12039    -0.11157
    -0.07949    -0.02259    -0.01748    -0.01175
 
 
 Beta HOMO energy:    -0.34830
 Beta LUMO energy:    -0.28244
 
  Beta Orbital energies (hartrees): 
   -10.37127   -10.37108   -10.36075   -10.35879   -10.35842   -10.35630
   -10.35373   -10.35341   -10.35051   -10.35014   -10.34951   -10.34312
   -10.34295   -10.34238   -10.32931   -10.32907   -10.32492   -10.32436
    -1.04894    -1.02233    -0.98642    -0.94010    -0.93765    -0.90974
    -0.88608    -0.87800    -0.83721    -0.81390    -0.75799    -0.75532
    -0.74700    -0.72535    -0.70534    -0.67134    -0.66011    -0.64417
    -0.63046    -0.61236    -0.60239    -0.59747    -0.58851    -0.58366
    -0.56091    -0.55923    -0.54984    -0.54781    -0.54382    -0.53398
    -0.52409    -0.50458    -0.49626    -0.48207    -0.47405    -0.44616
    -0.43719    -0.40746    -0.39579    -0.36685    -0.34830    -0.28244
    -0.21693    -0.19719    -0.16705    -0.13840    -0.11950    -0.10236
    -0.07545    -0.02104    -0.01605
 
  
  
    Unrestricted Spin Properties ...
    Sz*(Sz+1)      0.750
    <S**2> ...     0.957
  
  
  Peak memory usage:   6747 Mb
  
  end of program scf
   
 Time(scf)  user:      156.8  user+sys:      156.8  wallclock:       11.3
  
  start of program der1a
  
  Peak memory usage:   4838 Mb
  
  end of program der1a
   
 Time(der1a)  user:        2.3  user+sys:        2.3  wallclock:        0.5
  
  start of program rwr
  
  Peak memory usage:   4745 Mb
  
  end of program rwr
   
 Time(rwr)  user:       20.9  user+sys:       20.9  wallclock:        2.8
  
  start of program der1b
  
   
  forces (hartrees/bohr) : total     
   
 atom  label           x              y              z
 ---- --------   -------------  -------------  -------------
    1 C1         -3.396032E-04   8.914891E-05  -2.908813E-04
    2 C2          2.387621E-04  -1.720433E-04  -2.142975E-04
    3 C3          3.199580E-04  -1.580807E-04  -2.507440E-03
    4 C4         -1.543910E-03  -8.162374E-04  -1.545113E-03
    5 C5          5.250738E-03  -1.950284E-04   8.096899E-03
    6 C6         -6.913849E-03  -2.401885E-04  -1.186119E-03
    7 C7         -9.113310E-04   6.941918E-03   1.529534E-02
    8 C8         -8.294465E-03  -9.735137E-03  -2.187371E-02
    9 C9          1.238702E-03  -1.145524E-02  -5.116055E-03
   10 C10        -8.174947E-03   1.742246E-02  -1.731631E-02
   11 C11         1.759354E-02   1.108256E-02   3.074284E-02
   12 C12         2.417502E-03  -1.232944E-02   1.953692E-02
   13 C13         7.772713E-03   1.103153E-02   9.442339E-03
   14 C14         2.360092E-03  -7.858418E-03  -7.321505E-03
   15 C15        -3.742105E-04   5.010856E-03  -2.502194E-03
   16 C16        -4.057059E-04  -2.462927E-03   7.584579E-03
   17 C17        -4.990128E-04   1.056997E-03  -5.144920E-03
   18 C18         1.693061E-04   2.714366E-04   9.542652E-04
   19 H19         3.568775E-05  -1.359652E-04  -5.322917E-04
   20 H20         1.093111E-05   3.108835E-04  -8.312876E-05
   21 H21        -1.444523E-04  -7.435557E-05  -1.385555E-03
   22 H22        -1.491983E-03  -5.159918E-04   1.875739E-03
   23 H23        -9.522738E-04  -5.113954E-04   2.195425E-03
   24 H24        -6.738590E-03  -4.634570E-03   5.864577E-03
   25 H25         7.532385E-03  -3.402010E-03   3.216401E-03
   26 H26        -5.796344E-03  -2.079494E-03  -1.713291E-02
   27 H27        -4.240022E-03   2.543416E-03  -1.764930E-02
   28 H28         1.639563E-03  -4.785243E-04  -5.838317E-03
   29 H29         5.442330E-04   6.531672E-04   3.312309E-03
   30 H30         1.355095E-04   7.726494E-05  -7.857612E-04
 -------------   -------------  -------------  -------------
     total        4.389264E-04  -7.634134E-04  -3.081857E-04
   
  Peak memory usage:   6740 Mb
  
  end of program der1b
   
 Time(der1b)  user:       30.2  user+sys:       30.2  wallclock:        2.4
  
  start of program geopt
  
 ----------------------------------------------------------------------------
  Geometry optimization step  5
  Total energy:      -692.58108085356 hartrees
 ----------------------------------------------------------------------------
  
  
  Level shifts adjusted to satisfy step-size constraints
   Step size:    0.3000388
   Cos(theta):   0.9784692
   Final level shift:  -1.6260266E-01
  
  energy change:          -2.5179E-02 .  (  5.0000E-05 )
  gradient maximum:        3.2281E-02 .  (  4.5000E-04 )
  gradient rms:            6.5900E-03 .  (  3.0000E-04 )
  displacement maximum:    1.4349E-01 .  (  1.8000E-03 )
  displacement rms:        2.8870E-02 .  (  1.2000E-03 )
  
  predicted energy change:  -1.7372E-02
  step size:     0.30003
  trust radius:  0.30000
  
  molecular structure not yet converged...
  
  center of mass moved by:
     x:     2.6324E-03     y:    -1.0293E-02     z:     2.3429E-02
  
  new geometry: 
                                   angstroms
  atom               x                 y                 z
  C1           -3.5654108909      1.0746427026     -0.0822732514 
  C2           -3.7709342929     -0.3208895907     -0.0112009258 
  C3           -2.6910342276     -1.1943311016     -0.0652099686 
  C4           -1.3670472257     -0.6950954547     -0.1706263380 
  C5           -0.2378280760     -1.5527886799     -0.1824647929 
  C6            1.0629176347     -1.0603793544      0.0158377382 
  C7            2.1339031387     -1.9350090757      0.3944670019 
  C8            3.2998627479     -1.3582403260      0.8770634479 
  C9            4.5603867475     -1.8702005528      1.4368123326 
  C10           5.3404721436     -2.1959116729      0.2671763381 
  C11           5.8294420996     -0.9304598676     -0.2545909483 
  C12           5.0529419886      0.1908365750      0.0671345275 
  C13           3.6288064725      0.0007064919      0.4132230711 
  C14           2.5964957387      0.8961394190      0.1937146196 
  C15           1.2672974241      0.3799454811      0.0312751434 
  C16           0.1756312430      1.2252232579     -0.1907219206 
  C17          -1.1561411844      0.7303658861     -0.1977308539 
  C18          -2.2794675133      1.5934957094     -0.1892543759 
  H19          -4.4163227543      1.7449280961     -0.0400808708 
  H20          -4.7772389875     -0.7112281643      0.0880812255 
  H21          -2.8501295640     -2.2659219309     -0.0048221423 
  H22          -0.3898405213     -2.6266888462     -0.2418160116 
  H23           1.9573579063     -3.0036364646      0.4604575854 
  H24           5.0682782930     -1.1993333741      2.1274593887 
  H25           5.1995908151     -3.0761467189     -0.3558024958 
  H26           6.8412278859     -0.7983577589     -0.6311286384 
[...]
   25 H25        -2.571267E-05   6.186957E-05   2.091917E-05
   26 H26         6.814689E-06  -7.310436E-05  -1.419571E-04
   27 H27        -3.683012E-05   2.506062E-05   2.494085E-05
   28 H28         1.271742E-06   1.153349E-05   5.915738E-06
   29 H29        -4.019117E-06   1.054732E-05   9.616167E-06
   30 H30        -5.788649E-06   1.106496E-05   2.038612E-06
 -------------   -------------  -------------  -------------
     total        1.106483E-04   2.364019E-04  -5.858280E-05
   
  Peak memory usage:   6740 Mb
  
  end of program der1b
   
 Time(der1b)  user:       30.2  user+sys:       30.2  wallclock:        2.3
  
  start of program geopt
  
 ----------------------------------------------------------------------------
  Geometry optimization step 26
  Total energy:      -692.77831876867 hartrees
 ----------------------------------------------------------------------------
  
  energy change:          -5.9941E-06 *  (  5.0000E-05 )
  gradient maximum:        2.7451E-04 *  (  4.5000E-04 )
  gradient rms:            6.2294E-05 *  (  3.0000E-04 )
  displacement maximum:    3.4280E-03 .  (  1.8000E-03 )
  displacement rms:        8.2838E-04 *  (  1.2000E-03 )
  
  predicted energy change:  -1.8551E-06
  step size:     0.00861
  trust radius:  0.30000
  
  molecular structure not yet converged...
  
  center of mass moved by:
     x:     5.8833E-05     y:     1.1475E-04     z:     5.5694E-04
  
  new geometry: 
                                   angstroms
  atom               x                 y                 z
  C1           -3.5996059369      1.1293994874     -0.2129307313 
  C2           -3.8449187008     -0.2373941927      0.0692180677 
  C3           -2.7907108693     -1.1175007111      0.2584071697 
  C4           -1.4460514076     -0.6628533906      0.1724371592 
  C5           -0.3525649824     -1.5336314530      0.3598859463 
  C6            0.9792095481     -1.0810826451      0.2744641926 
  C7            2.0736125190     -1.9491069529      0.4619643222 
  C8            3.4056868908     -1.4940631289      0.3762737654 
  C9            4.5125496444     -2.3668154788      0.5644884564 
  C10           5.8102570783     -1.8878491806      0.4728775352 
  C11           6.0552270469     -0.5210381315      0.1901299958 
  C12           5.0007281536      0.3587236708      0.0017499913 
  C13           3.6563048148     -0.0964074875      0.0878378881 
  C14           2.5628092214      0.7741855699     -0.0995923895 
  C15           1.2310529501      0.3216023471     -0.0144357186 
  C16           0.1368833609      1.1898907500     -0.2015523272 
  C17          -1.1952270282      0.7348201257     -0.1158795213 
  C18          -2.3016936422      1.6079698048     -0.3040325418 
  H19          -4.4366433978      1.8026691961     -0.3579661899 
  H20          -4.8665494703     -0.5933516713      0.1367426313 
  H21          -2.9821123665     -2.1634798568      0.4741834591 
  H22          -0.5430672850     -2.5809861365      0.5760509101 
  H23           1.8869015030     -2.9971836590      0.6772909878 
  H24           4.3288330797     -3.4139646601      0.7813739014 
  H25           6.6474335952     -2.5609625951      0.6178922722 
  H26           7.0766719115     -0.1647826973      0.1227904115 
  H27           5.1916083635      1.4046486940     -0.2145352547 
  H28           2.7531559247      1.8214915654     -0.3159268269 
  H29           0.3238809448      2.2378493565     -0.4176995652 
  H30          -2.1177283283      2.6551673488     -0.5202239492 
   
  nuclear repulsion energy.......    1111.158752465 hartrees
  -------------------------------------------------
 /  end of geometry optimization iteration  26   /
 -------------------------------------------------
   
  Peak memory usage:   4726 Mb
  
  end of program geopt
   
 Time(geopt)  user:        6.0  user+sys:        6.0  wallclock:        0.5
  
  start of program onee
  
  smallest eigenvalue of S:    2.609E-04
  number of canonical orbitals.....          184
  Peak memory usage:   4838 Mb
  
  end of program onee
   
 Time(onee)  user:        1.8  user+sys:        1.8  wallclock:        0.4
  
  start of program probe
  
  Peak memory usage:   4756 Mb
  
  end of program probe
   
 Time(probe)  user:        1.5  user+sys:        1.5  wallclock:        0.4
  
  start of program grid
  
   grid     grid set  grid #  grid sym
  ------    --------  ------  --------
  coarse        0        0        1
  medium        2        1        1
  fine          0        0        1
  ultrafine     4        2        1
  charge       -1        3        1
  gradient      4        2        1
  density       0        0        1
  DFT-fine    -11        4        1
  DFT-med.    -10        5        1
  DFT-grad    -12        6        1
  DFT-der2      0        0        1
  DFT-cphf      0        0        1
  LMP2-enrg     4        2        1
  LMP2-grad     2        1        1
  DFT-cphf2     0        0        1
  PBF-dens      0        0        1
  plotting      0        0        1
  Rel-grad    -17        0        1
  
  number of gridpoints: 
     atom        C1       C2       C3       C4       C5       C6       C7
  grid # 1       97       97       97       99       97      101       97
  grid # 2      337      337      339      364      340      368      340
  grid # 3      230      230      230      248      234      258      233
  grid # 4     4304     4304     4304     4304     4304     4304     4304
  grid # 5     1192     1192     1192     1192     1192     1192     1192
  grid # 6     5226     5226     5226     5226     5226     5226     5226
   
  number of gridpoints: 
     atom        C8       C9      C10      C11      C12      C13      C14
  grid # 1       99       97       97       97       97       99       97
  grid # 2      364      339      337      337      339      364      340
  grid # 3      248      230      230      230      229      248      234
  grid # 4     4304     4304     4304     4304     4304     4304     4304
  grid # 5     1192     1192     1192     1192     1192     1192     1192
  grid # 6     5226     5226     5226     5226     5226     5226     5226
   
  number of gridpoints: 
     atom       C15      C16      C17      C18      H19      H20      H21
  grid # 1      101       97       99       97      118      118      118
  grid # 2      368      340      364      339      451      451      446
  grid # 3      258      234      247      229     1331     1331     1151
  grid # 4     4304     4304     4304     4304     4304     4304     4304
  grid # 5     1192     1192     1192     1192     1192     1192     1192
  grid # 6     5226     5226     5226     5226     5226     5226     5226
   
  number of gridpoints: 
     atom       H22      H23      H24      H25      H26      H27      H28
  grid # 1      118      118      118      118      118      118      118
  grid # 2      437      437      446      451      451      445      437
  grid # 3      964      964     1152     1331     1331     1151      964
  grid # 4     4304     4304     4304     4304     4304     4304     4304
  grid # 5     1192     1192     1192     1192     1192     1192     1192
  grid # 6     5226     5226     5226     5226     5226     5226     5226
   
  number of gridpoints: 
     atom       H29      H30    total
  grid # 1      118      118     3178
  grid # 2      437      446    11591
  grid # 3      964     1153    18067
  grid # 4     4304     4304   129120
  grid # 5     1192     1192    35760
  grid # 6     5226     5226   156780
   
  Peak memory usage:   4784 Mb
  
  end of program grid
   
 Time(grid)  user:       16.8  user+sys:       16.8  wallclock:        1.9
  
  start of program rwr
  
  Peak memory usage:   4734 Mb
  
  end of program rwr
   
 Time(rwr)  user:       29.3  user+sys:       29.3  wallclock:        2.7
  
  start of program scf
  
 Energy computed with NOPS off.
  
       i  u  d  i  g                   
       t  p  i  c  r                                 RMS    maximum
       e  d  i  u  i                       energy  density   DIIS  
       r  t  s  t  d       total energy    change  change    error 
  
etot    1  N  N  2  U    -692.77831331094           2.1E-05  1.7E-04
etot    2  N  Y  2  U    -692.77831898456  5.7E-06  4.4E-06  3.1E-05
etot    3  N  N  2  U    -692.77831893443 -5.0E-08  0.0E+00  0.0E+00
  
  
 Energy components, in hartrees:
   (A)  Nuclear repulsion............    1111.15875246499
   (E)  Total one-electron terms.....   -3122.12528388577
   (I)  Total two-electron terms.....    1318.18821248634
   (L)  Electronic energy............   -1803.93707139943  (E+I)
   (N)  Total energy.................    -692.77831893443  (A+L)
   (O)  Gas phase energy.............    -692.77831893443
  
                                 Total             Coulomb       Exchange+Corr.
 Total two-electron terms    1318.18821248634    1420.07403143949    -101.88581895315
   Hamiltonian  1........     679.11191785210     715.40928227280     -36.29736442070
   Hamiltonian  2........     668.71845032382     704.66474916669     -35.94629884287
  
 SCFE: SCF energy: UDFT(b3lyp)      -692.77831893443 hartrees   iterations:   3
  
 
 Alpha HOMO energy:    -0.33498
 Alpha LUMO energy:    -0.23754
 
  Alpha Orbital energies (hartrees): 
   -10.35798   -10.35796   -10.35770   -10.35760   -10.35190   -10.35162
   -10.34995   -10.34984   -10.34967   -10.34955   -10.33609   -10.33602
   -10.33595   -10.33578   -10.33210   -10.33174   -10.33172   -10.33134
    -1.04267    -1.01720    -0.98360    -0.94890    -0.93969    -0.92065
    -0.88862    -0.88592    -0.84527    -0.81265    -0.76920    -0.75931
    -0.75194    -0.73989    -0.70769    -0.67349    -0.65497    -0.64092
    -0.63832    -0.60711    -0.60167    -0.59637    -0.58659    -0.56884
    -0.56845    -0.55934    -0.55924    -0.55916    -0.54916    -0.52748
    -0.51182    -0.50495    -0.48560    -0.48292    -0.48235    -0.47481
    -0.46371    -0.43321    -0.42766    -0.38404    -0.38248    -0.33498
    -0.23754    -0.16640    -0.15523    -0.12104    -0.10579    -0.10046
    -0.02784    -0.02594    -0.02059    -0.02012
 
 
 Beta HOMO energy:    -0.36683
 Beta LUMO energy:    -0.28364
 
  Beta Orbital energies (hartrees): 
   -10.35475   -10.35471   -10.35444   -10.35438   -10.35284   -10.35257
   -10.35044   -10.35032   -10.35015   -10.35003   -10.33485   -10.33478
   -10.33471   -10.33454   -10.33171   -10.33135   -10.33133   -10.33095
    -1.03992    -1.01503    -0.98174    -0.94307    -0.93588    -0.91617
    -0.88867    -0.88232    -0.83820    -0.80962    -0.76769    -0.75627
    -0.75004    -0.73777    -0.70502    -0.67239    -0.65326    -0.63868
    -0.63679    -0.60528    -0.60117    -0.59469    -0.58556    -0.56768
    -0.56635    -0.55825    -0.55765    -0.55220    -0.54803    -0.52183
    -0.51117    -0.50371    -0.48253    -0.48083    -0.48051    -0.47443
    -0.44793    -0.42340    -0.41377    -0.38602    -0.36683    -0.28364
    -0.21729    -0.15519    -0.15328    -0.11215    -0.09444    -0.09191
    -0.02660    -0.01981    -0.01941
 
  
  
    Unrestricted Spin Properties ...
    Sz*(Sz+1)      0.750
    <S**2> ...     0.766
  
  
  Peak memory usage:   6746 Mb
  
  end of program scf
   
 Time(scf)  user:       50.6  user+sys:       50.6  wallclock:        3.9
  
  start of program der1a
  
  Peak memory usage:   4838 Mb
  
  end of program der1a
   
 Time(der1a)  user:        1.6  user+sys:        1.6  wallclock:        0.4
  
  start of program rwr
  
  Peak memory usage:   4745 Mb
  
  end of program rwr
   
 Time(rwr)  user:       23.7  user+sys:       23.7  wallclock:        2.9
  
  start of program der1b
  
   
  forces (hartrees/bohr) : total     
   
 atom  label           x              y              z
 ---- --------   -------------  -------------  -------------
    1 C1          1.110922E-05   4.309010E-05  -6.503258E-06
    2 C2         -1.538790E-05  -3.669224E-06  -4.021498E-07
    3 C3          1.557553E-05  -2.533675E-06  -1.158855E-05
    4 C4          2.298061E-05   4.322878E-05  -6.205693E-06
    5 C5         -1.301107E-05   1.022720E-05  -2.228005E-05
    6 C6          1.492510E-05   3.118169E-05   8.159044E-05
    7 C7         -9.989811E-07  -3.027165E-05  -8.618442E-05
    8 C8          9.504699E-05   6.759035E-05  -3.230840E-06
    9 C9         -6.083459E-05   9.619985E-06   1.093998E-05
   10 C10         1.446327E-05   3.026828E-05  -4.295147E-05
   11 C11         1.395145E-06  -1.062647E-05   1.315994E-04
   12 C12         1.449549E-05  -4.071572E-05  -1.025262E-04
   13 C13        -3.623475E-05   3.326752E-05   1.659713E-05
   14 C14        -1.611308E-05  -2.773877E-05  -2.554809E-05
   15 C15         4.069922E-06   5.121820E-05  -2.901924E-05
   16 C16         1.338406E-05  -1.897473E-05  -8.577530E-06
   17 C17         2.016710E-05   1.361023E-05   9.749994E-06
   18 C18         4.098001E-05  -2.021737E-07   1.454433E-06
   19 H19        -1.288618E-05   2.040460E-05  -3.071310E-07
   20 H20        -2.134577E-05   2.259971E-06   1.138780E-07
   21 H21        -7.615673E-06  -7.067724E-06  -2.301783E-06
   22 H22         3.811402E-06  -7.269560E-06  -5.240374E-06
   23 H23         6.203643E-06   3.028169E-06   3.199102E-05
   24 H24         1.709294E-05   1.394493E-05  -2.218314E-05
   25 H25        -1.335424E-05   1.473645E-05  -2.078641E-06
   26 H26        -3.573183E-07  -1.010069E-05  -3.881042E-05
   27 H27         8.973848E-06   9.333342E-06   3.440918E-05
   28 H28        -3.995992E-07  -4.150287E-06   2.415991E-05
   29 H29         7.948463E-07  -6.405721E-06   1.260388E-05
   30 H30        -3.286494E-06   9.373363E-06   3.812644E-06
 -------------   -------------  -------------  -------------
     total        1.036435E-04   2.366568E-04  -5.691712E-05
   
  Peak memory usage:   6740 Mb
  
  end of program der1b
   
 Time(der1b)  user:       29.6  user+sys:       29.6  wallclock:        2.3
  
  start of program geopt
  
 ----------------------------------------------------------------------------
  Geometry optimization step 27
  Total energy:      -692.77831893443 hartrees
 ----------------------------------------------------------------------------
  
  energy change:          -1.6576E-07 !  (  5.0000E-05 )
  gradient maximum:        7.2561E-05 #  (  4.5000E-04 )
  gradient rms:            2.3194E-05 #  (  3.0000E-04 )
  displacement maximum:    8.1600E-04 *  (  1.8000E-03 )
  displacement rms:        1.6893E-04 #  (  1.2000E-03 )
  
  predicted energy change:  -1.2987E-07
  step size:     0.00176
  trust radius:  0.30000
  
  ********************************************************
  **           Geometry optimization complete           **
  ********************************************************
  
  Checking the geometry optimization convergence pattern ...
  
  best                    worst
  ==0=====1=====2=====3=====4==
          ^                    
  
  Convergence category 1: non-monotonic convergence to an optimal structure.
  Geometry optimization was OK.
  
  Number of imaginary frequencies:   0
  
  center of mass moved by:
     x:     0.0000E+00     y:     0.0000E+00     z:     0.0000E+00
  
  final geometry: 
                                   angstroms
  atom               x                 y                 z
  C1           -3.5996059369      1.1293994874     -0.2129307313 
  C2           -3.8449187008     -0.2373941927      0.0692180677 
  C3           -2.7907108693     -1.1175007111      0.2584071697 
  C4           -1.4460514076     -0.6628533906      0.1724371592 
  C5           -0.3525649824     -1.5336314530      0.3598859463 
  C6            0.9792095481     -1.0810826451      0.2744641926 
  C7            2.0736125190     -1.9491069529      0.4619643222 
  C8            3.4056868908     -1.4940631289      0.3762737654 
  C9            4.5125496444     -2.3668154788      0.5644884564 
  C10           5.8102570783     -1.8878491806      0.4728775352 
  C11           6.0552270469     -0.5210381315      0.1901299958 
  C12           5.0007281536      0.3587236708      0.0017499913 
  C13           3.6563048148     -0.0964074875      0.0878378881 
  C14           2.5628092214      0.7741855699     -0.0995923895 
  C15           1.2310529501      0.3216023471     -0.0144357186 
  C16           0.1368833609      1.1898907500     -0.2015523272 
  C17          -1.1952270282      0.7348201257     -0.1158795213 
  C18          -2.3016936422      1.6079698048     -0.3040325418 
  H19          -4.4366433978      1.8026691961     -0.3579661899 
  H20          -4.8665494703     -0.5933516713      0.1367426313 
  H21          -2.9821123665     -2.1634798568      0.4741834591 
  H22          -0.5430672850     -2.5809861365      0.5760509101 
  H23           1.8869015030     -2.9971836590      0.6772909878 
  H24           4.3288330797     -3.4139646601      0.7813739014 
  H25           6.6474335952     -2.5609625951      0.6178922722 
  H26           7.0766719115     -0.1647826973      0.1227904115 
  H27           5.1916083635      1.4046486940     -0.2145352547 
  H28           2.7531559247      1.8214915654     -0.3159268269 
  H29           0.3238809448      2.2378493565     -0.4176995652 
  H30          -2.1177283283      2.6551673488     -0.5202239492 
   
  principal moments of inertia:
        amu*angstrom^2:      309.96326     2376.57201     2686.53523
                g*cm^2: 5.14706046E-38 3.94639017E-37 4.46109615E-37
   
  rotational constants:
               cm^(-1):      0.05438589      0.00709325      0.00627486
                   GHz:      1.63044807      0.21265041      0.18811553
   
  nuclear repulsion energy.......    1111.158752465 hartrees
  -------------------------------------------------
 /  end of geometry optimization iteration  27   /
 -------------------------------------------------
   
  Peak memory usage:   4821 Mb
  
  end of program geopt
   
 Time(geopt)  user:        9.7  user+sys:        9.7  wallclock:        0.9
  
  start of program ch
  
  Moments from quantum mechanical wavefunction:
  Dipole Moments  (Debye)
     X=     0.0123     Y=     0.0034     Z=    -0.0015  Tot=     0.0129
  
  gridpoints used for charge fit        17131
    out of a possible maximum of        18067
  
   Electrostatic potential fitting constrained to reproduce
     total charge:                yes
     dipole moment:               yes
     traceless quadrupole moment: no 
     traceless octapole moment:   no 
  
  Atomic charges from electrostatic potential: 
   
 Atom       C1           C2           C3           C4           C5      
 Charge   -0.06181     -0.06105     -0.16564      0.15433     -0.23420
   
 Atom       C6           C7           C8           C9           C10     
 Charge    0.13825     -0.23370      0.16127     -0.17399     -0.05106
   
 Atom       C11          C12          C13          C14          C15     
 Charge   -0.07222     -0.15503      0.14925     -0.23726      0.15010
   
 Atom       C16          C17          C18          H19          H20     
 Charge   -0.24013      0.15844     -0.16582      0.14768      0.14754
   
 Atom       H21          H22          H23          H24          H25     
 Charge    0.15594      0.18165      0.18041      0.15785      0.14546
   
 Atom       H26          H27          H28          H29          H30     
 Charge    0.14990      0.15378      0.18169      0.18217      0.15619
  
  sum of atomic charges:     1.000000
   
 RMS Error   6.91E-04 hartrees
 
  
  Moments from electrostatic potential charges:
  Dipole Moments  (Debye)
     X=     0.0123     Y=     0.0034     Z=    -0.0015  Tot=     0.0129
  
  Peak memory usage:   4833 Mb
  
  end of program ch
   
 Time(ch)  user:        5.3  user+sys:        5.3  wallclock:        2.4

 Total cpu seconds     user:    6159.957   user+sys:    6159.957
  
 Total elapsed time:    617 seconds

Job 2,3-Benzanthracene_1 completed on n033 at Sun Jan  8 22:34:33 2017
