Job alprenolol_1 started on n029 at Sun Jan  8 22:24:17 2017
jobid: u01-0-58730257

  +--------------------------------------------------------------------+
  |  Jaguar version 9.3, release  15                                   |
  |                                                                    |
  |  Copyright Schrodinger, Inc.                                       |
  |  All Rights Reserved.                                              |
  |                                                                    |
  |  The following have contributed to Jaguar (listed alphabetically): |
  |  Mike Beachy, Art Bochevarov, Dale Braden, Yixiang Cao,            |
  |  Chris Cortis, Rich Friesner, Bill Goddard, Hod Greeley,           |
  |  Tom Hughes, Leif Jacobson, Jean-Marc Langlois,                    |
  |  Daniel Mainz, Rob Murphy, Dean Philipp,                           |
  |  Tom Pollard, Murco Ringnalda, Mark Watson.                        |
  |                                                                    |
  |  Use of this program should be acknowledged in publications as:    |
  |                                                                    |
  |  Jaguar, version 9.3, Schrodinger, Inc., New York, NY, 2016.       |
  |                                                                    |
  |  A. D. Bochevarov, E. Harder, T. F. Hughes, J. R. Greenwood,       |
  |  D. A. Braden, D. M. Philipp, D. Rinaldo, M. D. Halls,             |
  |  J. Zhang, R. A. Friesner, "Jaguar: A High-Performance Quantum     |
  |  Chemistry Software Program with Strengths in Life and Materials   |
  |  Sciences", Int. J. Quantum Chem., 2013, 113(18), 2110-2142.       |
  +--------------------------------------------------------------------+
  
  start of program pre
  
  Job name: alprenolol_1
  Executables used: /home/applications/Schrodinger_Suites_2016-3/jaguar-v9.3/bin/Linux-x86_64
  Temporary files : /scratch/Schrodinger_Suites/pbeni001/alprenolol_1#u01-0-58730257
  Maestro file (input):  alprenolol_1.mae
  Maestro file (output): alprenolol_1.01.mae
  
  basis set:             6-31g                           
  net molecular charge:    1
  multiplicity:            2
  
  Using up to  16 threads per process
  
  number of basis functions....          208
  
 Input geometry:
                                   angstroms
  atom               x                 y                 z
  C1            0.7746862000      0.9155648000     -0.0097631000 
  C2            2.5211395000      0.4858564000     -0.0680310000 
  C3            3.0844007000      1.8080247000      0.2989633000 
  N4            3.2002787000     -0.5251456000      0.8904822000 
  C5            4.6371310000     -0.7753820000      0.9574981000 
  C6            4.9710576000     -1.9358139000      1.9872132000 
  C7            4.4480071000     -3.3921194000      1.6823940000 
  O8            3.0240692000     -3.5400391000      1.8105872000 
  C9            2.4204284000     -4.7222903000      1.4068849000 
  C10           2.8909839000     -5.9191764000      1.8759169000 
  C11           2.3107494000     -7.1003502000      1.4043620000 
  C12           1.1570273000     -7.1108991000      0.6149078000 
  C13           0.5383571000     -5.9389135000      0.3184988000 
  C14           1.1930224000     -4.7700260000      0.6579342000 
  C15           0.4224567000     -3.6606596000      0.1033121000 
  C16           0.9221949000     -2.5189722000      0.7410743000 
  C17           0.9872747000     -1.5423422000     -0.0585146000 
  O18           6.4081815000     -2.0077156000      2.0833250000 
  H19           0.5030686000      1.5414731000     -0.8560243000 
  H20           0.5229568000      1.2641010000      0.9988556000 
  H21          -0.0694274000      0.1842587000     -0.1232478000 
  H22           2.7517724000      0.1550781000     -1.0941693000 
  H23           2.7265431000      2.0213930000      1.3120056000 
  H24           2.6900429000      2.5410631000     -0.4026407000 
  H25           4.1685766000      1.8049470000      0.2735653000 
  H26           2.9354292000     -1.4663460000      0.5859589000 
  H27           5.1819504000      0.1215417000      1.2648492000 
  H28           5.0228386000     -1.0881351000     -0.0213310000 
  H29           4.5985299000     -1.6355660000      2.9764058000 
  H30           4.9461508000     -4.0683119000      2.3914493000 
  H31           4.7630543000     -3.6757933000      0.6729019000 
  H32           3.6799395000     -5.9387015000      2.6162062000 
  H33           2.7628924000     -8.0431575000      1.6699619000 
  H34           0.7148158000     -8.0204003000      0.2401008000 
  H35          -0.4197873000     -5.8819555000     -0.2016556000 
  H36          -0.6339337000     -3.5803787000      0.3788690000 
  H37           0.5139589000     -3.5933108000     -0.9958584000 
  H38           1.2338064000     -2.4028601000      1.7850254000 
  H39           0.7916368000     -1.3734405000     -1.1172922000 
  H40           1.1377699000     -0.8294332000      0.7320165000 
  H41           6.7437814000     -2.1709952000      1.1847876000 
   
  principal moments of inertia:
        amu*angstrom^2:      848.47950     1840.92637     2612.27565
                g*cm^2: 1.40893318E-37 3.05692977E-37 4.33778523E-37
   
  rotational constants:
               cm^(-1):      0.01986805      0.00915714      0.00645324
                   GHz:      0.59562901      0.27452429      0.19346312
   
  Molecular weight:     249.17 amu
   
  Stoichiometry: C15NH23O2
  Molecular Point Group: C1      
  Point Group used: C1
  
 
Number of optimization coordinates:   123
Number of independent coordinates:    123
Number of non-redundant coordinates:  117
Number of frozen coordinates:           0
Number of harmonic constraints:         0
 
Number of geometric degrees of freedom:   117
Maximum geometric degrees of freedom:     117
 " " " " " excluding dummy atoms:         117
 
  nuclear repulsion energy.......    1382.022155665 hartrees
 
 Non-default options chosen:
   SCF calculation type: UDFT(b3lyp)                 
   UDFT=Becke_3_Parameter/HF+Slater+Becke88+VWN+LYP (B3LYP)
   Geometry will be optimized in redundant internal coordinates
   Electrostatic potential fit to point charges on atomic centers
   Electrostatic potential fitting constrained to reproduce
     total charge:                yes
     dipole moment:               yes
     traceless quadrupole moment: no 
     traceless octapole moment:   no 
  
 Temporary integer options set:
     73=  2
  
  Peak memory usage:   4803 Mb
  
  end of program pre
   
 Time(pre)  user:        7.9  user+sys:        7.9  wallclock:        1.1
  
  start of program onee
  
  smallest eigenvalue of S:    6.108E-04
  number of canonical orbitals.....          208
  Peak memory usage:   4838 Mb
  
  end of program onee
   
 Time(onee)  user:        3.1  user+sys:        3.1  wallclock:        0.7
  
  start of program hfig
  
  initial wavefunction generated automatically from atomic wavefunctions
  
  -------------------
  Alpha orbital space
  -------------------
 
  Irreducible     Total no   No of occupied orbitals 
  representation  orbitals   Shell_1  Shell_2    ...
  No Symm          208         68
  ------------------------
  Orbital occupation/shell    1.000
 
  ------------------
  Beta orbital space
  ------------------
 
  Irreducible     Total no   No of occupied orbitals 
  representation  orbitals   Shell_1  Shell_2    ...
  No Symm          208         67
  ------------------------
  Orbital occupation/shell    1.000
 
  
  
    Unrestricted Spin Properties ...
    Sz*(Sz+1) ..............     0.750
    <S**2> of initial guess      0.750
  
  
  Peak memory usage:   4756 Mb
  
  end of program hfig
   
 Time(hfig)  user:        4.1  user+sys:        4.1  wallclock:        0.6
  
  start of program probe
  
  Peak memory usage:   4756 Mb
  
  end of program probe
   
 Time(probe)  user:        1.3  user+sys:        1.3  wallclock:        0.4
  
  start of program grid
  
   grid     grid set  grid #  grid sym
  ------    --------  ------  --------
  coarse        0        0        1
  medium        2        1        1
  fine          0        0        1
  ultrafine     4        2        1
  charge       -1        3        1
  gradient      4        2        1
  density       0        0        1
  DFT-fine    -11        4        1
  DFT-med.    -10        5        1
  DFT-grad    -12        6        1
  DFT-der2      0        0        1
  DFT-cphf      0        0        1
  LMP2-enrg     4        2        1
  LMP2-grad     2        1        1
  DFT-cphf2     0        0        1
  PBF-dens      0        0        1
  plotting      0        0        1
  Rel-grad    -17        0        1
  
  number of gridpoints: 
     atom        C1       C2       C3       N4       C5       C6       C7
  grid # 1       78       90       79       98       83       90       85
  grid # 2      282      323      255      361      294      316      291
  grid # 3        6        6        6       94        6        6        6
  grid # 4     4304     4304     4304     4304     4304     4304     4304
  grid # 5     1192     1192     1192     1192     1192     1192     1192
  grid # 6     5226     5226     5226     5226     5226     5226     5226
   
  number of gridpoints: 
     atom        O8       C9      C10      C11      C12      C13      C14
  grid # 1      113       97       96       97       97       95       97
  grid # 2      426      359      333      337      333      337      354
  grid # 3      172      130      175      222      228      195      147
  grid # 4     4304     4304     4304     4304     4304     4304     4304
  grid # 5     1192     1192     1192     1192     1192     1192     1192
  grid # 6     5226     5226     5226     5226     5226     5226     5226
   
  number of gridpoints: 
     atom       C15      C16      C17      O18      H19      H20      H21
  grid # 1       83       90       84      112      113      110       99
  grid # 2      277      317      298      430      435      429      407
  grid # 3        6       28       18      657      946      855      584
  grid # 4     4304     4304     4304     4304     4304     4304     4304
  grid # 5     1192     1192     1192     1192     1192     1192     1192
  grid # 6     5226     5226     5226     5226     5226     5226     5226
   
  number of gridpoints: 
     atom       H22      H23      H24      H25      H26      H27      H28
  grid # 1      110      108      109      106       97      105      107
  grid # 2      429      432      435      427      389      430      426
  grid # 3      662      854      935      766      119      640      634
  grid # 4     4304     4304     4304     4304     4304     4304     4304
  grid # 5     1192     1192     1192     1192     1192     1192     1192
  grid # 6     5226     5226     5226     5226     5226     5226     5226
   
  number of gridpoints: 
     atom       H29      H30      H31      H32      H33      H34      H35
  grid # 1      112      106      108      113      118      118      114
  grid # 2      441      427      431      437      451      452      441
  grid # 3      926      648      729      942     1326     1335     1013
  grid # 4     4304     4304     4304     4304     4304     4304     4304
  grid # 5     1192     1192     1192     1192     1192     1192     1192
  grid # 6     5226     5226     5226     5226     5226     5226     5226
   
  number of gridpoints: 
     atom       H36      H37      H38      H39      H40      H41    total
  grid # 1      110      106      107      108       93      110     4151
  grid # 2      437      435      423      419      373      439    15768
  grid # 3      930      797      663      636      136     1005    20189
  grid # 4     4304     4304     4304     4304     4304     4304   176464
  grid # 5     1192     1192     1192     1192     1192     1192    48872
  grid # 6     5226     5226     5226     5226     5226     5226   214266
   
  Peak memory usage:   4788 Mb
  
  end of program grid
   
 Time(grid)  user:       23.2  user+sys:       23.2  wallclock:        2.2
  
  start of program rwr
  
  Peak memory usage:   4745 Mb
  
  end of program rwr
   
 Time(rwr)  user:       46.2  user+sys:       46.2  wallclock:        4.1
  
  start of program scf
  
 number of electrons..........        135
 number of alpha electrons....         68
 number of beta electrons.....         67
 number of alpha orbitals.....        208
 number of beta orbitals......        208
 number of alpha occupied orb..        68
 number of alpha virtual orb...       140
 number of beta occupied orb...        67
 number of beta virtual orb....       141
 SCF type: UDFT=Becke_3_Parameter/HF+Slater+Becke88+VWN+LYP (B3LYP)
 Energy computed with NOPS off.
  
       i  u  d  i  g                   
       t  p  i  c  r                                 RMS    maximum
       e  d  i  u  i                       energy  density   DIIS  
       r  t  s  t  d       total energy    change  change    error 
  
etot    1  N  N  5  M    -786.65721719483           2.6E-02  1.2E-01
etot    2  Y  Y  6  M    -778.73409525799 -7.9E+00  2.8E-02  4.3E-01
etot    3  Y  Y  6  M    -786.64556599800  7.9E+00  1.4E-02  1.9E-01
etot    4  N  Y  2  U    -789.59364114314  2.9E+00  7.4E-03  4.4E-02
etot    5  Y  Y  6  M    -789.53309308823 -6.1E-02  4.7E-03  6.5E-02
etot    6  N  Y  2  U    -789.75923357272  2.3E-01  3.8E-03  4.0E-02
etot    7  Y  Y  6  M    -789.78359508662  2.4E-02  3.5E-03  3.0E-02
etot    8  N  Y  2  U    -789.80336893444  2.0E-02  1.6E-03  2.2E-02
etot    9  Y  Y  6  M    -789.84464206153  4.1E-02  6.4E-04  6.3E-03
etot   10  N  Y  2  U    -789.84653106360  1.9E-03  2.3E-04  2.7E-03
etot   11  Y  Y  6  M    -789.84715106025  6.2E-04  5.2E-05  2.7E-03
etot   12  Y  Y  6  M    -789.84726155734  1.1E-04  9.2E-05  1.9E-03
etot   13  Y  Y  6  M    -789.84736322291  1.0E-04  7.8E-05  1.2E-03
etot   14  Y  Y  6  M    -789.84742035259  5.7E-05  2.1E-05  5.1E-04
etot   15  N  Y  2  U    -789.84741845749 -1.9E-06  1.8E-05  2.4E-04
etot   16  N  Y  2  U    -789.84742091103  2.5E-06  6.8E-06  9.6E-05
etot   17  N  Y  2  U    -789.84742132411  4.1E-07  4.0E-06  5.4E-05
etot   18  N  N  2  U    -789.84742138719  6.3E-08  0.0E+00  0.0E+00
  
  
 Energy components, in hartrees:
   (A)  Nuclear repulsion............    1382.02215566495
   (E)  Total one-electron terms.....   -3796.61639738132
   (I)  Total two-electron terms.....    1624.74682032918
   (L)  Electronic energy............   -2171.86957705214  (E+I)
   (N)  Total energy.................    -789.84742138719  (A+L)
   (O)  Gas phase energy.............    -789.84742138719
  
                                 Total             Coulomb       Exchange+Corr.
 Total two-electron terms    1624.74682032918    1738.71153844074    -113.96471811156
   Hamiltonian  1........     835.00927803756     875.63705094087     -40.62777290331
   Hamiltonian  2........     822.88065725326     863.07448749987     -40.19383024661
  
 SCFE: SCF energy: UDFT(b3lyp)      -789.84742138719 hartrees   iterations:  18
  
 
 Alpha HOMO energy:    -0.37319
 Alpha LUMO energy:    -0.14614
 
  Alpha Orbital energies (hartrees): 
   -19.32838   -19.28126   -14.51132   -10.40107   -10.38893   -10.38667
   -10.37880   -10.36469   -10.34275   -10.32756   -10.32323   -10.31665
   -10.31488   -10.31420   -10.31291   -10.30994   -10.28953   -10.28342
    -1.22028    -1.16773    -1.08177    -1.02199    -0.98589    -0.92583
    -0.91154    -0.90702    -0.87391    -0.83563    -0.82945    -0.80403
    -0.76587    -0.74471    -0.73711    -0.72101    -0.69445    -0.68290
    -0.66567    -0.63724    -0.63135    -0.62596    -0.61991    -0.61375
    -0.60248    -0.59284    -0.58290    -0.58116    -0.57029    -0.56722
    -0.55085    -0.53735    -0.53169    -0.52938    -0.51748    -0.50889
    -0.50146    -0.49632    -0.49189    -0.48286    -0.46632    -0.45897
    -0.45047    -0.44256    -0.41797    -0.40608    -0.40147    -0.38650
    -0.38603    -0.37319    -0.14614    -0.13507    -0.11128    -0.08193
    -0.06151    -0.05942    -0.03937    -0.03187    -0.02140    -0.01325
 
 
 Beta HOMO energy:    -0.35492
 Beta LUMO energy:    -0.32750
 
  Beta Orbital energies (hartrees): 
   -19.32641   -19.28097   -14.50384   -10.40013   -10.38872   -10.38670
   -10.37859   -10.36482   -10.34087   -10.32634   -10.32362   -10.31607
   -10.31507   -10.31363   -10.31274   -10.30914   -10.28782   -10.28343
    -1.21621    -1.16700    -1.06878    -1.01850    -0.98242    -0.92437
    -0.90749    -0.90557    -0.87189    -0.83256    -0.82641    -0.80206
    -0.76425    -0.74272    -0.73483    -0.71748    -0.69220    -0.68138
    -0.66129    -0.63511    -0.62937    -0.62126    -0.61688    -0.60997
    -0.59893    -0.59067    -0.58031    -0.57908    -0.56786    -0.56504
    -0.54747    -0.53468    -0.52899    -0.52754    -0.51540    -0.50635
    -0.49925    -0.49468    -0.48962    -0.47954    -0.46251    -0.45472
    -0.44865    -0.43644    -0.41040    -0.39446    -0.38374    -0.38046
    -0.35492    -0.32750    -0.13800    -0.12958    -0.10406    -0.07983
    -0.05933    -0.05737    -0.03815    -0.03055    -0.01985
 
  
  
    Unrestricted Spin Properties ...
    Sz*(Sz+1)      0.750
    <S**2> ...     0.754
  
  
  Peak memory usage:   6748 Mb
  
  end of program scf
   
 Time(scf)  user:      250.7  user+sys:      250.7  wallclock:       17.7
  
  start of program der1a
  
  Peak memory usage:   4838 Mb
  
  end of program der1a
   
 Time(der1a)  user:        2.1  user+sys:        2.1  wallclock:        0.5
  
  start of program rwr
  
  Peak memory usage:   4745 Mb
  
  end of program rwr
   
 Time(rwr)  user:       31.9  user+sys:       31.9  wallclock:        4.3
  
  start of program der1b
  
   
  forces (hartrees/bohr) : total     
   
 atom  label           x              y              z
 ---- --------   -------------  -------------  -------------
    1 C1         -6.167650E-03  -1.621945E-02  -1.048035E-03
    2 C2         -2.088231E-02   2.083927E-02   8.915652E-03
    3 C3          3.423521E-03   1.430712E-02  -2.189295E-03
    4 N4         -1.467168E-02  -2.449339E-02  -3.180244E-02
    5 C5          1.434576E-02   1.190879E-02   1.492800E-02
    6 C6         -1.818269E-02   3.980597E-03   5.407905E-03
    7 C7          2.900632E-02   6.778406E-03   1.908664E-03
    8 O8         -1.713366E-02   1.616999E-02  -8.030993E-03
    9 C9         -2.559565E-02  -1.448901E-03  -2.942989E-03
   10 C10         9.679255E-03  -2.332934E-02  -9.109371E-04
   11 C11         1.063607E-02  -1.128617E-02   8.221856E-03
   12 C12        -2.540651E-03  -2.822948E-02  -2.645578E-03
   13 C13         3.687185E-03  -1.144959E-02   4.743550E-03
   14 C14        -2.142525E-02  -1.025142E-02  -8.224186E-03
   15 C15         2.292537E-03  -2.493903E-02   1.340893E-02
   16 C16        -3.394295E-03  -4.267051E-02   2.093636E-02
   17 C17         1.668721E-02   9.446958E-02   5.990773E-03
   18 O18        -6.891235E-03  -1.864563E-03   2.585847E-03
   19 H19         1.861500E-02   2.428055E-02   3.738911E-03
   20 H20         1.326919E-02   1.795498E-02  -3.786191E-03
   21 H21         2.270241E-02   3.392500E-03  -3.554890E-03
   22 H22        -5.053304E-03   1.959572E-03   2.220822E-03
   23 H23         5.687738E-03   8.156266E-03  -1.380943E-03
   24 H24         4.607152E-03   8.712172E-03   3.024340E-03
   25 H25         6.585492E-03   6.536716E-03  -1.865587E-05
   26 H26        -2.821076E-02   8.716437E-04   1.380385E-02
   27 H27         2.414979E-03  -3.261572E-03   1.338786E-03
   28 H28         2.434573E-03   4.479934E-04  -6.005710E-03
   29 H29         3.727340E-03  -9.546688E-04  -3.911280E-03
   30 H30         1.650409E-03   5.509226E-03  -8.181245E-04
   31 H31        -9.819870E-04  -2.756292E-03  -3.515241E-03
   32 H32         4.325197E-03  -3.303470E-03  -3.469220E-03
   33 H33         4.473152E-04  -3.611167E-03   4.365890E-03
   34 H34         3.947723E-03  -8.956897E-03   3.339917E-03
   35 H35         6.953007E-03  -2.850424E-03   1.649195E-03
   36 H36        -1.091121E-02  -2.865015E-02  -4.518360E-03
   37 H37        -3.919907E-03  -2.823107E-04   6.267809E-03
   38 H38        -1.288600E-02  -1.107357E-02  -8.134246E-03
   39 H39         1.303807E-03  -7.119891E-03   1.058417E-02
   40 H40        -1.028630E-03   2.423299E-02  -3.534976E-02
   41 H41         1.163342E-02  -1.647313E-03  -5.151802E-03
 -------------   -------------  -------------  -------------
     total        1.857508E-04  -1.411982E-04  -2.763493E-05
   
  Peak memory usage:   6741 Mb
  
  end of program der1b
   
 Time(der1b)  user:       48.4  user+sys:       48.4  wallclock:        3.6
  
  start of program geopt
  
 ----------------------------------------------------------------------------
  Geometry optimization step  1
  Total energy:      -789.84742138719 hartrees
 ----------------------------------------------------------------------------
  
  
  Level shifts adjusted to satisfy step-size constraints
   Step size:    0.3000079
   Cos(theta):   0.7205138
   Final level shift:  -1.1166266E+00
  
  gradient maximum:        6.1769E-01 .  (  4.5000E-04 )
  gradient rms:            1.1944E-01 .  (  3.0000E-04 )
  displacement maximum:    4.9574E-02 .  (  1.8000E-03 )
  displacement rms:        1.4065E-02 .  (  1.2000E-03 )
  
  predicted energy change:  -1.2376E-01
  step size:     0.15599
  trust radius:  0.30000
  
  molecular structure not yet converged...
  
  center of mass moved by:
     x:    -3.3331E-02     y:    -5.4552E-02     z:    -6.5463E-03
  
  new geometry: 
                                   angstroms
  atom               x                 y                 z
  C1            0.9503831810      1.3914649565      0.0271193915 
  C2            2.6218838036      0.7668308009     -0.0348414197 
  C3            3.3478394530      2.0068174997      0.3647280903 
  N4            3.1642176245     -0.3399964577      0.9006821733 
  C5            4.5809997647     -0.7029771800      0.9558305979 
  C6            4.8862353012     -1.9100757365      1.9394708933 
  C7            4.3502398012     -3.3634661692      1.6430339683 
  O8            2.9293661287     -3.5580797019      1.7863817959 
  C9            2.3954485242     -4.7859861714      1.4060787202 
  C10           2.9612270848     -5.9346441328      1.9112829139 
  C11           2.4847842404     -7.1779001261      1.4887577680 
  C12           1.3360712156     -7.3092518600      0.7042421797 
  C13           0.6255088738     -6.1930872865      0.3695826838 
  C14           1.1742938666     -4.9495532386      0.6621244248 
  C15           0.3246895563     -3.9003767990      0.0807105615 
  C16           0.7325746289     -2.6765796590      0.6736098736 
  C17           0.7302001260     -1.6885726865     -0.1545715708 
  O18           6.3216268850     -2.0465505012      1.9978154259 
  H19           0.7721055351      2.0669636295     -0.8072895430 
  H20           0.7444400532      1.7526338787      1.0414994089 
  H21           0.0423265072      0.7523984277     -0.1139500421 
  H22           2.8382117699      0.4483889041     -1.0672040412 
  H23           3.0215169617      2.2463198337      1.3822520854 
  H24           3.0545285175      2.8045384039     -0.3161868143 
  H25           4.4251676035      1.8745613395      0.3395343688 
  H26           2.7730941326     -1.2319748818      0.5815762831 
  H27           5.1927880621      0.1357114381      1.2988046537 
  H28           4.9437953675     -1.0020750259     -0.0372213379 
  H29           4.5575663125     -1.6236308565      2.9470604213 
  H30           4.8589133555     -4.0374599783      2.3457475149 
  H31           4.6477397359     -3.6502409584      0.6283475761 
  H32           3.7549374946     -5.8718983975      2.6442829443 
  H33           3.0162789270     -8.0680563092      1.7900576658 
  H34           0.9726305570     -8.2680735447      0.3670152822 
  H35          -0.3327504071     -6.2308939970     -0.1492993787 
  H36          -0.7358690519     -3.9067148470      0.3573557969 
  H37           0.4154899781     -3.8464066790     -1.0179767380 
  H38           1.0285828109     -2.5022623061      1.7115189563 
  H39           0.5262505355     -1.5573209785     -1.2148082715 
  H40           0.8301030222     -0.9191165587      0.5893493724 
  H41           6.6355247945     -2.1951649812      1.0873103335 
   
  nuclear repulsion energy.......    1353.495681082 hartrees
  -------------------------------------------------
 /  end of geometry optimization iteration   1   /
 -------------------------------------------------
   
  Peak memory usage:   4726 Mb
  
  end of program geopt
   
 Time(geopt)  user:        5.3  user+sys:        5.3  wallclock:        0.4
  
  start of program onee
  
  smallest eigenvalue of S:    6.141E-04
  number of canonical orbitals.....          208
  Peak memory usage:   4838 Mb
  
  end of program onee
   
 Time(onee)  user:        2.0  user+sys:        2.0  wallclock:        0.5
  
  start of program probe
  
  Peak memory usage:   4756 Mb
  
  end of program probe
   
 Time(probe)  user:        2.1  user+sys:        2.1  wallclock:        0.4
  
  start of program grid
  
   grid     grid set  grid #  grid sym
  ------    --------  ------  --------
  coarse        0        0        1
  medium        2        1        1
  fine          0        0        1
  ultrafine     4        2        1
  charge       -1        3        1
  gradient      4        2        1
  density       0        0        1
  DFT-fine    -11        4        1
  DFT-med.    -10        5        1
  DFT-grad    -12        6        1
  DFT-der2      0        0        1
  DFT-cphf      0        0        1
  LMP2-enrg     4        2        1
  LMP2-grad     2        1        1
  DFT-cphf2     0        0        1
  PBF-dens      0        0        1
  plotting      0        0        1
  Rel-grad    -17        0        1
  
  number of gridpoints: 
     atom        C1       C2       C3       N4       C5       C6       C7
  grid # 1       81       91       79      100       85       89       85
  grid # 2      285      320      256      366      296      317      290
  grid # 3        6        6        6      122        6        6        6
  grid # 4     4304     4304     4304     4304     4304     4304     4304
  grid # 5     1192     1192     1192     1192     1192     1192     1192
  grid # 6     5226     5226     5226     5226     5226     5226     5226
   
  number of gridpoints: 
     atom        O8       C9      C10      C11      C12      C13      C14
  grid # 1      113       99       96       97       97       95       98
  grid # 2      427      360      334      337      334      338      353
  grid # 3      195      125      175      220      229      200      149
  grid # 4     4304     4304     4304     4304     4304     4304     4304
  grid # 5     1192     1192     1192     1192     1192     1192     1192
  grid # 6     5226     5226     5226     5226     5226     5226     5226
   
  number of gridpoints: 
     atom       C15      C16      C17      O18      H19      H20      H21
  grid # 1       81       90       84      112      112      111      103
  grid # 2      281      322      309      429      435      433      419
  grid # 3        6       32       51      635      964      899      665
  grid # 4     4304     4304     4304     4304     4304     4304     4304
  grid # 5     1192     1192     1192     1192     1192     1192     1192
  grid # 6     5226     5226     5226     5226     5226     5226     5226
   
  number of gridpoints: 
     atom       H22      H23      H24      H25      H26      H27      H28
  grid # 1      109      109      109      106      100      105      106
  grid # 2      434      433      435      425      394      423      428
  grid # 3      713      852      930      742      137      591      627
  grid # 4     4304     4304     4304     4304     4304     4304     4304
  grid # 5     1192     1192     1192     1192     1192     1192     1192
  grid # 6     5226     5226     5226     5226     5226     5226     5226
   
  number of gridpoints: 
     atom       H29      H30      H31      H32      H33      H34      H35
  grid # 1      112      105      108      112      118      118      114
  grid # 2      438      424      433      435      450      453      442
  grid # 3      933      593      729      920     1328     1343     1024
  grid # 4     4304     4304     4304     4304     4304     4304     4304
  grid # 5     1192     1192     1192     1192     1192     1192     1192
  grid # 6     5226     5226     5226     5226     5226     5226     5226
   
  number of gridpoints: 
     atom       H36      H37      H38      H39      H40      H41    total
  grid # 1      111      107      108      113      101      110     4179
  grid # 2      438      436      425      436      391      439    15853
  grid # 3      956      812      687      885      229      998    20732
  grid # 4     4304     4304     4304     4304     4304     4304   176464
  grid # 5     1192     1192     1192     1192     1192     1192    48872
  grid # 6     5226     5226     5226     5226     5226     5226   214266
   
  Peak memory usage:   4788 Mb
  
  end of program grid
   
 Time(grid)  user:       25.4  user+sys:       25.4  wallclock:        2.3
  
  start of program rwr
  
  Peak memory usage:   4745 Mb
  
  end of program rwr
   
 Time(rwr)  user:       41.3  user+sys:       41.3  wallclock:        4.2
  
  start of program scf
  
 Energy computed with NOPS off.
  
       i  u  d  i  g                   
       t  p  i  c  r                                 RMS    maximum
       e  d  i  u  i                       energy  density   DIIS  
       r  t  s  t  d       total energy    change  change    error 
  
etot    1  N  N  2  U    -789.89909929344           1.5E-03  1.2E-02
etot    2  Y  Y  6  M    -789.94199304511  4.3E-02  1.2E-03  4.2E-03
etot    3  N  Y  2  U    -789.92231727550 -2.0E-02  1.4E-03  2.2E-02
etot    4  N  Y  2  U    -789.94164778448  1.9E-02  3.6E-04  8.0E-03
etot    5  Y  Y  6  M    -789.94432186015  2.7E-03  5.9E-05  6.9E-04
etot    6  Y  Y  6  M    -789.94435303938  3.1E-05  3.3E-05  5.6E-04
etot    7  N  Y  2  U    -789.94442163132  6.9E-05  2.2E-05  3.4E-04
etot    8  N  Y  2  U    -789.94442823832  6.6E-06  1.5E-05  1.7E-04
etot    9  N  Y  2  U    -789.94443017135  1.9E-06  8.7E-06  2.8E-05
etot   10  N  Y  2  U    -789.94443055789  3.9E-07  1.9E-06  1.5E-05
etot   11  N  N  2  U    -789.94443060289  4.5E-08  0.0E+00  0.0E+00
  
  
 Energy components, in hartrees:
   (A)  Nuclear repulsion............    1353.49568108213
   (E)  Total one-electron terms.....   -3739.99005857518
   (I)  Total two-electron terms.....    1596.54994689016
   (L)  Electronic energy............   -2143.44011168502  (E+I)
   (N)  Total energy.................    -789.94443060289  (A+L)
   (O)  Gas phase energy.............    -789.94443060289
  
                                 Total             Coulomb       Exchange+Corr.
 Total two-electron terms    1596.54994689016    1710.39689263601    -113.84694574586
   Hamiltonian  1........     820.77609125695     861.36213273780     -40.58604148085
   Hamiltonian  2........     808.88526598091     849.03475989821     -40.14949391730
  
 SCFE: SCF energy: UDFT(b3lyp)      -789.94443060289 hartrees   iterations:  11
  
 
 Alpha HOMO energy:    -0.37328
 Alpha LUMO energy:    -0.14515
 
  Alpha Orbital energies (hartrees): 
   -19.32814   -19.28199   -14.52221   -10.40172   -10.39084   -10.38588
   -10.37688   -10.36853   -10.34461   -10.32716   -10.32274   -10.31855
   -10.31531   -10.31219   -10.31070   -10.30977   -10.29170   -10.28369
    -1.21768    -1.16874    -1.08167    -1.01478    -0.97226    -0.91991
    -0.90426    -0.90261    -0.87283    -0.83401    -0.82204    -0.79907
    -0.76556    -0.74335    -0.73478    -0.71842    -0.68913    -0.67908
    -0.66454    -0.63307    -0.62810    -0.62278    -0.61810    -0.61139
    -0.59459    -0.59108    -0.58403    -0.57706    -0.56919    -0.56302
    -0.54982    -0.53342    -0.52730    -0.52402    -0.51382    -0.50765
    -0.49966    -0.49608    -0.49295    -0.47926    -0.46885    -0.45737
    -0.44649    -0.44169    -0.42577    -0.41790    -0.40928    -0.39553
    -0.38421    -0.37328    -0.14515    -0.13616    -0.10964    -0.08056
    -0.05921    -0.05280    -0.03768    -0.02450    -0.01402    -0.01178
 
 
 Beta HOMO energy:    -0.35290
 Beta LUMO energy:    -0.32860
 
  Beta Orbital energies (hartrees): 
   -19.32585   -19.28179   -14.51350   -10.40061   -10.39065   -10.38591
   -10.37682   -10.36863   -10.34278   -10.32600   -10.32314   -10.31774
   -10.31567   -10.31217   -10.31029   -10.30946   -10.29052   -10.28370
    -1.21298    -1.16819    -1.06669    -1.01153    -0.96990    -0.91854
    -0.90244    -0.89937    -0.87043    -0.83068    -0.81913    -0.79824
    -0.76397    -0.74125    -0.73264    -0.71433    -0.68751    -0.67759
    -0.65961    -0.63102    -0.62601    -0.61793    -0.61421    -0.60690
    -0.59140    -0.58862    -0.58187    -0.57527    -0.56742    -0.56136
    -0.54496    -0.53147    -0.52479    -0.52221    -0.51151    -0.50556
    -0.49726    -0.49422    -0.49091    -0.47551    -0.46416    -0.45415
    -0.44368    -0.43547    -0.42265    -0.41196    -0.38694    -0.38070
    -0.35290    -0.32860    -0.13692    -0.12973    -0.10431    -0.07871
    -0.05754    -0.05025    -0.03669    -0.02317    -0.01316
 
  
  
    Unrestricted Spin Properties ...
    Sz*(Sz+1)      0.750
    <S**2> ...     0.754
  
  
  Peak memory usage:   6748 Mb
  
  end of program scf
   
 Time(scf)  user:      176.0  user+sys:      176.0  wallclock:       12.5
  
  start of program der1a
  
  Peak memory usage:   4838 Mb
  
  end of program der1a
   
 Time(der1a)  user:        3.0  user+sys:        3.0  wallclock:        0.5
  
  start of program rwr
  
  Peak memory usage:   4745 Mb
  
  end of program rwr
   
 Time(rwr)  user:       28.5  user+sys:       28.5  wallclock:        4.1
  
  start of program der1b
  
   
  forces (hartrees/bohr) : total     
   
 atom  label           x              y              z
 ---- --------   -------------  -------------  -------------
    1 C1         -3.056661E-04  -4.649726E-02   5.146360E-03
    2 C2         -3.063973E-02   1.628323E-02   1.569576E-02
    3 C3          4.242245E-03   1.231149E-02  -1.484063E-03
    4 N4         -2.142022E-02  -2.198849E-02  -3.948758E-02
    5 C5          1.234710E-02   2.886965E-03   1.662718E-02
    6 C6         -1.924910E-02   1.000475E-05   8.577653E-03
    7 C7          2.499985E-02   5.998311E-03  -1.340222E-03
    8 O8         -2.088243E-02   1.511080E-02  -1.098393E-02
    9 C9         -2.041824E-02  -6.531336E-03   3.018474E-03
   10 C10         1.031671E-02  -2.072751E-02  -1.451829E-03
   11 C11         1.267308E-02  -7.026888E-03   9.083016E-03
   12 C12        -4.068660E-03  -2.132101E-02  -3.151566E-03
   13 C13         7.214028E-03  -5.696701E-03   3.479854E-03
   14 C14        -2.173337E-02  -9.518393E-03  -8.916717E-03
   15 C15         1.361099E-02  -1.162774E-02   1.803670E-02
   16 C16        -1.496080E-03  -1.603822E-02  -1.028090E-03
   17 C17         7.607871E-03   9.138484E-02   1.391461E-02
   18 O18        -3.742150E-03   1.274838E-03   1.543122E-03
   19 H19         1.918727E-02   1.604597E-02   4.998299E-03
   20 H20         1.342920E-02   1.458064E-02  -5.037978E-03
   21 H21         2.347821E-02  -1.118626E-02  -1.368857E-03
   22 H22        -4.714368E-03  -8.957050E-04   1.459330E-03
   23 H23         5.711749E-03   6.528395E-03  -1.057267E-03
   24 H24         4.753901E-03   6.643469E-03   2.622529E-03
   25 H25         5.998016E-03   5.332392E-03  -4.072958E-04
   26 H26        -2.504471E-02   8.655601E-04   1.327047E-02
   27 H27         4.676672E-04  -2.312270E-03   3.860977E-05
   28 H28         5.845677E-04   1.200761E-03  -6.036165E-03
   29 H29         2.905001E-03  -2.626679E-04  -3.526589E-03
   30 H30         3.283494E-03   6.893626E-03  -1.180378E-03
   31 H31         1.097373E-04  -1.866705E-03  -2.666038E-03
   32 H32         3.839939E-03  -2.264975E-03  -3.169526E-03
   33 H33         3.214633E-04  -2.981930E-03   4.072255E-03
   34 H34         3.432814E-03  -6.842423E-03   3.386190E-03
   35 H35         6.083339E-03  -2.351261E-03   9.894770E-04
   36 H36        -6.482659E-03  -2.520136E-02  -3.935598E-03
   37 H37        -4.589199E-03  -2.826848E-03   4.817928E-03
   38 H38        -1.210041E-02  -1.172304E-02  -5.535242E-03
   39 H39        -7.467367E-04  -5.359322E-03   7.410375E-03
   40 H40         1.092324E-03   4.127245E-02  -3.249015E-02
   41 H41         1.028227E-02  -1.750567E-03  -4.248462E-03
 -------------   -------------  -------------  -------------
     total        3.391221E-04  -1.751338E-04  -3.153477E-04
   
  Peak memory usage:   6741 Mb
  
  end of program der1b
   
 Time(der1b)  user:       42.1  user+sys:       42.1  wallclock:        3.2
  
  start of program geopt
  
 ----------------------------------------------------------------------------
  Geometry optimization step  2
  Total energy:      -789.94443060289 hartrees
 ----------------------------------------------------------------------------
  
  
  Level shifts adjusted to satisfy step-size constraints
   Step size:    0.3001331
   Cos(theta):   0.8046522
   Final level shift:  -8.4154595E-01
  
  energy change:          -9.7009E-02 .  (  5.0000E-05 )
  gradient maximum:        1.1996E-01 .  (  4.5000E-04 )
  gradient rms:            3.6018E-02 .  (  3.0000E-04 )
  displacement maximum:    1.1303E-01 .  (  1.8000E-03 )
  displacement rms:        2.7062E-02 .  (  1.2000E-03 )
  
  predicted energy change:  -8.6139E-02
  step size:     0.30013
  trust radius:  0.30000
  
  molecular structure not yet converged...
  
  center of mass moved by:
     x:    -1.9612E-02     y:    -2.0409E-02     z:    -6.5122E-03
  
  new geometry: 
                                   angstroms
  atom               x                 y                 z
  C1            1.1075841977      1.5538735883      0.1555709214 
  C2            2.7042693087      0.8611981800      0.0118807546 
  C3            3.5617056029      2.0520428670      0.3683572580 
  N4            3.1559077036     -0.2791551839      0.9329717595 
  C5            4.5630330186     -0.6895384061      0.9729645876 
  C6            4.8491135731     -1.9075266638      1.9327589590 
  C7            4.3000113271     -3.3451432812      1.6328373236 
  O8            2.8669464136     -3.5421344468      1.7669198329 
  C9            2.3783254176     -4.7940601371      1.3911438731 
  C10           3.0175304507     -5.9087663669      1.9291032410 
  C11           2.6406294790     -7.1965195566      1.5530458462 
  C12           1.5089968789     -7.4216270960      0.7640659621 
  C13           0.7317000144     -6.3441644419      0.3920698248 
  C14           1.1698475212     -5.0308952042      0.6411926625 
  C15           0.2441665709     -4.0181289448      0.0424249894 
  C16           0.4779324059     -2.6683264655      0.5604873349 
  C17           0.3547558386     -1.6510830903     -0.3061036327 
  O18           6.2839970839     -2.0853938787      1.9763744122 
  H19           0.9483201213      2.2325362214     -0.6818472263 
  H20           1.0000814858      1.9554246556      1.1685533499 
  H21           0.2005974729      0.9159624322      0.0568791887 
  H22           2.9032666929      0.5401012762     -1.0221080478 
  H23           3.3327132079      2.3275392214      1.4025207185 
  H24           3.3045034964      2.8841644427     -0.2870900016 
  H25           4.6263021618      1.8455175096      0.2760220843 
  H26           2.6437407700     -1.1229875682      0.6478509111 
  H27           5.2060547725      0.1162938893      1.3345052036 
  H28           4.9109436634     -0.9716667518     -0.0333084525 
  H29           4.5458555912     -1.6243949438      2.9469212746 
  H30           4.8118569386     -4.0168283755      2.3325933791 
  H31           4.5875140427     -3.6321380894      0.6137056210 
  H32           3.8111106167     -5.7857443265      2.6549565584 
  H33           3.2346485828     -8.0336351143      1.8938088449 
  H34           1.2179785882     -8.4183685215      0.4621588603 
  H35          -0.2137673228     -6.4569691826     -0.1332667170 
  H36          -0.8126560740     -4.1367553573      0.3187667884 
  H37           0.3428666051     -3.9569853396     -1.0524691753 
  H38           0.7159848631     -2.4115245568      1.5907252432 
  H39           0.1421909821     -1.5692106237     -1.3657171831 
  H40           0.3483452157     -0.7899288213      0.3455234082 
  H41           6.6015632994     -2.2340054064      1.0633514094 
   
  nuclear repulsion energy.......    1333.843192272 hartrees
  -------------------------------------------------
 /  end of geometry optimization iteration   2   /
 -------------------------------------------------
   
  Peak memory usage:   4726 Mb
  
  end of program geopt
   
 Time(geopt)  user:        7.0  user+sys:        7.0  wallclock:        0.6
  
  start of program onee
  
  smallest eigenvalue of S:    6.267E-04
  number of canonical orbitals.....          208
  Peak memory usage:   4838 Mb
  
  end of program onee
   
 Time(onee)  user:        1.9  user+sys:        1.9  wallclock:        0.5
  
  start of program probe
  
  Peak memory usage:   4756 Mb
  
  end of program probe
   
 Time(probe)  user:        1.2  user+sys:        1.2  wallclock:        0.4
  
  start of program grid
  
   grid     grid set  grid #  grid sym
  ------    --------  ------  --------
  coarse        0        0        1
  medium        2        1        1
  fine          0        0        1
  ultrafine     4        2        1
  charge       -1        3        1
  gradient      4        2        1
  density       0        0        1
  DFT-fine    -11        4        1
  DFT-med.    -10        5        1
  DFT-grad    -12        6        1
  DFT-der2      0        0        1
  DFT-cphf      0        0        1
  LMP2-enrg     4        2        1
  LMP2-grad     2        1        1
  DFT-cphf2     0        0        1
  PBF-dens      0        0        1
  plotting      0        0        1
  Rel-grad    -17        0        1
  
  number of gridpoints: 
     atom        C1       C2       C3       N4       C5       C6       C7
  grid # 1       81       92       77       99       85       89       82
  grid # 2      282      321      265      367      293      315      287
  grid # 3        6        6        6      128        6        6        6
  grid # 4     4304     4304     4304     4304     4304     4304     4304
  grid # 5     1192     1192     1192     1192     1192     1192     1192
  grid # 6     5226     5226     5226     5226     5226     5226     5226
   
  number of gridpoints: 
     atom        O8       C9      C10      C11      C12      C13      C14
  grid # 1      114       97       96       97       97       95       99
  grid # 2      438      353      333      335      335      338      363
  grid # 3      239      131      170      220      230      206      152
  grid # 4     4304     4304     4304     4304     4304     4304     4304
  grid # 5     1192     1192     1192     1192     1192     1192     1192
  grid # 6     5226     5226     5226     5226     5226     5226     5226
   
  number of gridpoints: 
     atom       C15      C16      C17      O18      H19      H20      H21
  grid # 1       83       92       82      112      112      112      102
  grid # 2      288      332      303      428      435      435      411
  grid # 3        6       40       62      620      960      946      572
  grid # 4     4304     4304     4304     4304     4304     4304     4304
  grid # 5     1192     1192     1192     1192     1192     1192     1192
  grid # 6     5226     5226     5226     5226     5226     5226     5226
   
  number of gridpoints: 
     atom       H22      H23      H24      H25      H26      H27      H28
  grid # 1      110      110      109      107      103      105      107
  grid # 2      432      433      437      424      405      420      426
  grid # 3      726      855      939      742      183      556      612
  grid # 4     4304     4304     4304     4304     4304     4304     4304
  grid # 5     1192     1192     1192     1192     1192     1192     1192
  grid # 6     5226     5226     5226     5226     5226     5226     5226
   
  number of gridpoints: 
     atom       H29      H30      H31      H32      H33      H34      H35
  grid # 1      110      103      107      110      118      118      114
  grid # 2      439      420      432      433      450      452      444
  grid # 3      929      550      726      872     1329     1358     1035
  grid # 4     4304     4304     4304     4304     4304     4304     4304
  grid # 5     1192     1192     1192     1192     1192     1192     1192
  grid # 6     5226     5226     5226     5226     5226     5226     5226
   
  number of gridpoints: 
     atom       H36      H37      H38      H39      H40      H41    total
  grid # 1      111      108      110      116      102      111     4184
  grid # 2      439      437      430      444      393      442    15889
  grid # 3      956      825      738     1081      326     1008    21064
  grid # 4     4304     4304     4304     4304     4304     4304   176464
  grid # 5     1192     1192     1192     1192     1192     1192    48872
  grid # 6     5226     5226     5226     5226     5226     5226   214266
   
  Peak memory usage:   4788 Mb
  
  end of program grid
   
 Time(grid)  user:       21.8  user+sys:       21.8  wallclock:        2.1
  
  start of program rwr
  
  Peak memory usage:   4745 Mb
  
  end of program rwr
   
 Time(rwr)  user:       41.5  user+sys:       41.5  wallclock:        4.2
  
  start of program scf
  
 Energy computed with NOPS off.
  
       i  u  d  i  g                   
       t  p  i  c  r                                 RMS    maximum
       e  d  i  u  i                       energy  density   DIIS  
       r  t  s  t  d       total energy    change  change    error 
  
etot    1  N  N  2  U    -789.98036474160           1.2E-03  1.3E-02
etot    2  Y  Y  6  M    -790.01375151487  3.3E-02  1.2E-03  3.5E-03
etot    3  N  Y  2  U    -789.99547770209 -1.8E-02  1.6E-03  2.0E-02
etot    4  N  Y  2  U    -790.00836872398  1.3E-02  6.3E-04  1.2E-02
etot    5  Y  Y  6  M    -790.01594831579  7.6E-03  6.6E-05  8.1E-04
etot    6  N  Y  2  U    -790.01595805136  9.7E-06  3.9E-05  7.7E-04
etot    7  N  Y  2  U    -790.01598614463  2.8E-05  1.3E-05  1.5E-04
etot    8  N  Y  2  U    -790.01598964891  3.5E-06  1.4E-05  5.8E-05
etot    9  N  Y  2  U    -790.01599075966  1.1E-06  1.1E-05  7.9E-05
etot   10  N  Y  2  U    -790.01599171581  9.6E-07  6.8E-06  6.0E-05
etot   11  N  Y  2  U    -790.01599206695  3.5E-07  4.0E-06  1.8E-05
etot   12  N  N  2  U    -790.01599214553  7.9E-08  0.0E+00  0.0E+00
  
  
 Energy components, in hartrees:
   (A)  Nuclear repulsion............    1333.84319227188
   (E)  Total one-electron terms.....   -3700.99813305856
   (I)  Total two-electron terms.....    1577.13894864115
   (L)  Electronic energy............   -2123.85918441741  (E+I)
   (N)  Total energy.................    -790.01599214553  (A+L)
   (O)  Gas phase energy.............    -790.01599214553
  
                                 Total             Coulomb       Exchange+Corr.
 Total two-electron terms    1577.13894864115    1690.86422694541    -113.72527830426
   Hamiltonian  1........     810.98482996473     851.52697151388     -40.54214154915
   Hamiltonian  2........     799.23262053682     839.33725543153     -40.10463489471
  
 SCFE: SCF energy: UDFT(b3lyp)      -790.01599214553 hartrees   iterations:  12
  
 
 Alpha HOMO energy:    -0.37253
 Alpha LUMO energy:    -0.14350
 
  Alpha Orbital energies (hartrees): 
   -19.32798   -19.28115   -14.52659   -10.40282   -10.38942   -10.38391
   -10.37471   -10.36879   -10.34926   -10.32513   -10.32173   -10.32150
   -10.32146   -10.31918   -10.31752   -10.30867   -10.30188   -10.28585
    -1.21294    -1.16635    -1.08170    -1.00453    -0.95288    -0.91793
    -0.89837    -0.89505    -0.87074    -0.83580    -0.81847    -0.80022
    -0.76347    -0.73992    -0.73248    -0.71968    -0.68870    -0.67304
    -0.66404    -0.63056    -0.62539    -0.62216    -0.61458    -0.61021
    -0.59447    -0.58930    -0.58158    -0.57562    -0.56309    -0.55645
    -0.54985    -0.53089    -0.52428    -0.52234    -0.51036    -0.50678
    -0.49731    -0.49644    -0.49414    -0.48473    -0.47163    -0.46071
    -0.44740    -0.44387    -0.43848    -0.41923    -0.41058    -0.39390
    -0.38008    -0.37253    -0.14350    -0.13774    -0.11761    -0.08038
    -0.05907    -0.03794    -0.03460    -0.02437    -0.01066    -0.00946
 
 
 Beta HOMO energy:    -0.35157
 Beta LUMO energy:    -0.32880
 
  Beta Orbital energies (hartrees): 
   -19.32554   -19.28099   -14.51760   -10.40152   -10.38926   -10.38393
   -10.37471   -10.36889   -10.34759   -10.32427   -10.32204   -10.32116
   -10.32036   -10.31918   -10.31802   -10.30841   -10.30076   -10.28584
    -1.20790    -1.16587    -1.06620    -1.00136    -0.95079    -0.91651
    -0.89595    -0.89271    -0.86766    -0.83249    -0.81598    -0.79943
    -0.76192    -0.73789    -0.73028    -0.71541    -0.68718    -0.67159
    -0.65894    -0.62843    -0.62291    -0.61686    -0.61121    -0.60563
    -0.59157    -0.58695    -0.57949    -0.57395    -0.56191    -0.55495
    -0.54452    -0.52883    -0.52199    -0.52077    -0.50666    -0.50557
    -0.49512    -0.49465    -0.49229    -0.48113    -0.46653    -0.45717
    -0.44573    -0.44234    -0.43201    -0.41204    -0.38538    -0.37613
    -0.35157    -0.32880    -0.13598    -0.13037    -0.11229    -0.07860
    -0.05733    -0.03684    -0.03252    -0.02256    -0.00975
 
  
  
    Unrestricted Spin Properties ...
    Sz*(Sz+1)      0.750
    <S**2> ...     0.754
  
  
  Peak memory usage:   6748 Mb
  
  end of program scf
   
 Time(scf)  user:      209.4  user+sys:      209.4  wallclock:       14.7
  
  start of program der1a
  
  Peak memory usage:   4838 Mb
  
  end of program der1a
   
 Time(der1a)  user:        2.3  user+sys:        2.3  wallclock:        0.5
  
  start of program rwr
  
  Peak memory usage:   4745 Mb
  
  end of program rwr
   
 Time(rwr)  user:       30.3  user+sys:       30.3  wallclock:        4.0
  
  start of program der1b
  
   
  forces (hartrees/bohr) : total     
   
 atom  label           x              y              z
 ---- --------   -------------  -------------  -------------
    1 C1          9.981922E-03  -4.617639E-02   1.062142E-03
    2 C2         -2.441236E-02   2.503464E-02   2.193125E-02
    3 C3          3.031828E-03   8.390173E-03  -9.154709E-04
    4 N4         -2.245525E-02  -1.431073E-02  -3.901006E-02
    5 C5          6.214445E-03  -5.938676E-03   1.434465E-02
    6 C6         -1.654116E-02  -1.551125E-03   7.086307E-03
    7 C7          1.935325E-02   5.909599E-03  -3.408934E-03
    8 O8         -2.138586E-02   1.417552E-02  -1.476576E-02
    9 C9         -1.419834E-02  -1.189690E-02   9.873149E-03
   10 C10         8.626580E-03  -1.465964E-02  -3.972978E-03
   11 C11         1.105888E-02  -1.385337E-03   7.795111E-03
   12 C12        -6.989743E-03  -8.495732E-03  -3.925348E-03
   13 C13         8.283599E-03   4.604201E-03   1.218901E-03
   14 C14        -1.718875E-02  -4.195387E-03  -5.146839E-03
   15 C15         1.982421E-02   1.337999E-02   1.967945E-02
   16 C16         3.557790E-03   1.097268E-02  -3.201310E-02
   17 C17        -6.060351E-04   3.035572E-02   4.120652E-02
   18 O18        -1.253324E-03   2.620221E-03  -2.679417E-05
   19 H19         1.431553E-02   1.223263E-02   5.212717E-03
   20 H20         9.062423E-03   1.114144E-02  -6.203112E-03
   21 H21         1.943662E-02  -4.571333E-03  -1.288471E-04
   22 H22        -7.804349E-03  -2.437290E-03  -2.629577E-04
   23 H23         4.091266E-03   4.167972E-03  -5.152561E-04
   24 H24         3.042522E-03   3.737942E-03   9.378280E-04
   25 H25         3.894981E-03   3.082278E-03  -1.335016E-03
   26 H26        -1.507287E-02   7.333752E-04   1.388877E-02
   27 H27        -1.700072E-03  -8.455496E-05  -9.620744E-04
   28 H28        -2.141262E-05   1.117345E-03  -4.352316E-03
   29 H29         2.047440E-03  -5.392039E-05  -2.310502E-03
   30 H30         1.938310E-03   5.752528E-03  -1.200222E-03
   31 H31         6.641776E-04  -1.298344E-03  -1.179279E-03
   32 H32         2.555027E-03   1.184243E-05  -2.814402E-03
   33 H33        -8.128600E-04  -2.137973E-03   3.096686E-03
   34 H34         1.306323E-03  -3.255483E-03   2.371429E-03
   35 H35         3.883584E-03  -3.389989E-03  -1.953874E-04
   36 H36        -1.863208E-03  -2.195020E-02  -5.025991E-03
   37 H37        -5.039354E-03  -7.981164E-03   2.181696E-03
   38 H38        -5.849189E-03  -1.129355E-02   1.539076E-04
   39 H39         3.205539E-04  -8.467672E-03   2.252023E-03
   40 H40        -4.796675E-05   1.985804E-02  -2.364242E-02
   41 H41         7.204888E-03  -1.212543E-03  -1.569469E-03
 -------------   -------------  -------------  -------------
     total        4.540665E-04   5.342022E-04  -5.899883E-04
   
  Peak memory usage:   6741 Mb
  
  end of program der1b
   
 Time(der1b)  user:       40.3  user+sys:       40.3  wallclock:        3.1
  
  start of program geopt
  
 ----------------------------------------------------------------------------
  Geometry optimization step  3
  Total energy:      -790.01599214553 hartrees
 ----------------------------------------------------------------------------
  
  
  Level shifts adjusted to satisfy step-size constraints
   Step size:    0.3000396
   Cos(theta):   0.7877414
   Final level shift:  -4.0317775E-01
  
  energy change:          -7.1562E-02 .  (  5.0000E-05 )
  gradient maximum:        7.3223E-02 .  (  4.5000E-04 )
  gradient rms:            2.0468E-02 .  (  3.0000E-04 )
  displacement maximum:    1.2236E-01 .  (  1.8000E-03 )
  displacement rms:        2.7054E-02 .  (  1.2000E-03 )
  
  predicted energy change:  -4.4974E-02
  step size:     0.30004
  trust radius:  0.30000
  
  molecular structure not yet converged...
  
  center of mass moved by:
     x:    -2.6108E-02     y:    -1.7087E-02     z:    -5.0004E-03
  
  new geometry: 
                                   angstroms
  atom               x                 y                 z
  C1            1.1862015347      1.6909669437      0.3885066381 
  C2            2.6586380557      0.9338125784      0.0943475370 
  C3            3.6644772192      2.0599645006      0.3355561386 
  N4            3.0474836237     -0.2290985300      0.9883807905 
  C5            4.4433808657     -0.6857882617      0.9599928973 
  C6            4.7687318418     -1.9010855986      1.8893574602 
  C7            4.2410401901     -3.3343889699      1.6047621904 
  O8            2.8011655503     -3.5490252115      1.7428058073 
  C9            2.3601524229     -4.8353229177      1.4198110309 
  C10           3.0220674731     -5.9245372684      2.0123348271 
  C11           2.6935928416     -7.2322383761      1.6746302083 
  C12           1.5911706682     -7.4967720303      0.8476482917 
  C13           0.8096650111     -6.4338699386      0.4099597002 
  C14           1.1906230521     -5.0908956598      0.6305399124 
  C15           0.3116170168     -4.0627409390     -0.0346157031 
  C16           0.5169891375     -2.6500246974      0.4113503741 
  C17           0.4201971730     -1.6345522401     -0.4844159975 
  O18           6.2084472411     -2.0817011392      1.8586271205 
  H19           1.0052511606      2.3674680759     -0.4475413841 
  H20           1.2385816216      2.1427257613      1.3821916603 
  H21           0.2790443480      1.0642426121      0.3889664987 
  H22           2.7651887073      0.5965506139     -0.9478663564 
  H23           3.6012972743      2.3694660856      1.3832547872 
  H24           3.4147606805      2.9185251953     -0.2900700693 
  H25           4.6933128619      1.7724838175      0.1143281971 
  H26           2.4050912354     -1.0119041636      0.8012006794 
  H27           5.1217937233      0.0962527142      1.3052620612 
  H28           4.7342685495     -0.9575026854     -0.0701568006 
  H29           4.5336048834     -1.6207823540      2.9199694117 
  H30           4.7848461092     -3.9839078564      2.2969407345 
  H31           4.5137265713     -3.6218853608      0.5803964366 
  H32           3.8075374106     -5.7579903246      2.7382635160 
  H33           3.2955625604     -8.0429313633      2.0667970462 
  H34           1.3302478575     -8.5116454352      0.5746621216 
  H35          -0.1057385524     -6.5906013375     -0.1515181418 
  H36          -0.7521879199     -4.2098028217      0.2079002532 
  H37           0.4538793266     -4.0481312722     -1.1239050019 
  H38           0.6976194494     -2.3655556921      1.4431344724 
  H39           0.2338836998     -1.6131417229     -1.5498372721 
  H40           0.4062714663     -0.6961759441      0.0543125400 
  H41           6.4994187473     -2.2266896506      0.9333240262 
   
  nuclear repulsion energy.......    1332.421308625 hartrees
  -------------------------------------------------
 /  end of geometry optimization iteration   3   /
 -------------------------------------------------
   
  Peak memory usage:   4726 Mb
  
  end of program geopt
   
 Time(geopt)  user:        7.0  user+sys:        7.0  wallclock:        0.6
  
  start of program onee
  
  smallest eigenvalue of S:    6.142E-04
  number of canonical orbitals.....          208
  Peak memory usage:   4838 Mb
  
  end of program onee
   
 Time(onee)  user:        2.0  user+sys:        2.0  wallclock:        0.4
  
  start of program probe
  
  Peak memory usage:   4756 Mb
  
  end of program probe
   
 Time(probe)  user:        1.9  user+sys:        1.9  wallclock:        0.4
  
  start of program grid
  
   grid     grid set  grid #  grid sym
  ------    --------  ------  --------
  coarse        0        0        1
  medium        2        1        1
  fine          0        0        1
  ultrafine     4        2        1
  charge       -1        3        1
  gradient      4        2        1
  density       0        0        1
  DFT-fine    -11        4        1
  DFT-med.    -10        5        1
  DFT-grad    -12        6        1
  DFT-der2      0        0        1
  DFT-cphf      0        0        1
  LMP2-enrg     4        2        1
  LMP2-grad     2        1        1
  DFT-cphf2     0        0        1
  PBF-dens      0        0        1
  plotting      0        0        1
  Rel-grad    -17        0        1
  
  number of gridpoints: 
     atom        C1       C2       C3       N4       C5       C6       C7
  grid # 1       77       92       77      100       83       89       84
  grid # 2      277      324      266      364      287      311      287
  grid # 3        6        6        6      129        6        6        6
  grid # 4     4304     4304     4304     4304     4304     4304     4304
  grid # 5     1192     1192     1192     1192     1192     1192     1192
  grid # 6     5226     5226     5226     5226     5226     5226     5226
   
  number of gridpoints: 
     atom        O8       C9      C10      C11      C12      C13      C14
  grid # 1      113       99       96       97       97       95      101
  grid # 2      443      358      336      334      335      338      363
  grid # 3      249      128      176      222      233      212      155
  grid # 4     4304     4304     4304     4304     4304     4304     4304
  grid # 5     1192     1192     1192     1192     1192     1192     1192
  grid # 6     5226     5226     5226     5226     5226     5226     5226
   
  number of gridpoints: 
     atom       C15      C16      C17      O18      H19      H20      H21
  grid # 1       83       95       83      112      111      111      102
  grid # 2      289      332      306      429      436      437      412
  grid # 3        8       48       76      602      965      949      660
  grid # 4     4304     4304     4304     4304     4304     4304     4304
  grid # 5     1192     1192     1192     1192     1192     1192     1192
  grid # 6     5226     5226     5226     5226     5226     5226     5226
   
  number of gridpoints: 
     atom       H22      H23      H24      H25      H26      H27      H28
  grid # 1      109      110      110      105      102      105      105
  grid # 2      432      432      437      421      404      418      426
  grid # 3      663      832      943      751      178      515      589
  grid # 4     4304     4304     4304     4304     4304     4304     4304
  grid # 5     1192     1192     1192     1192     1192     1192     1192
  grid # 6     5226     5226     5226     5226     5226     5226     5226
   
  number of gridpoints: 
     atom       H29      H30      H31      H32      H33      H34      H35
  grid # 1      110      102      107      109      118      118      114
  grid # 2      437      420      432      433      451      453      444
  grid # 3      941      542      718      878     1336     1364     1051
  grid # 4     4304     4304     4304     4304     4304     4304     4304
  grid # 5     1192     1192     1192     1192     1192     1192     1192
  grid # 6     5226     5226     5226     5226     5226     5226     5226
   
  number of gridpoints: 
     atom       H36      H37      H38      H39      H40      H41    total
  grid # 1      110      108      111      117      103      111     4181
  grid # 2      439      436      428      445      399      442    15893
  grid # 3      968      839      717     1159      293     1007    21132
  grid # 4     4304     4304     4304     4304     4304     4304   176464
  grid # 5     1192     1192     1192     1192     1192     1192    48872
  grid # 6     5226     5226     5226     5226     5226     5226   214266
   
  Peak memory usage:   4788 Mb
  
  end of program grid
   
 Time(grid)  user:       23.0  user+sys:       23.0  wallclock:        1.9
  
  start of program rwr
  
  Peak memory usage:   4745 Mb
  
  end of program rwr
   
 Time(rwr)  user:       40.7  user+sys:       40.7  wallclock:        3.8
  
  start of program scf
  
 Energy computed with NOPS off.
  
       i  u  d  i  g                   
       t  p  i  c  r                                 RMS    maximum
       e  d  i  u  i                       energy  density   DIIS  
       r  t  s  t  d       total energy    change  change    error 
  
etot    1  N  N  2  U    -790.03074697841           1.0E-03  1.1E-02
etot    2  Y  Y  6  M    -790.05703561550  2.6E-02  5.9E-04  2.4E-03
etot    3  N  Y  2  U    -790.05301591536 -4.0E-03  9.8E-04  1.0E-02
etot    4  Y  Y  6  M    -790.05287207163 -1.4E-04  5.1E-04  1.3E-02
etot    5  N  Y  2  U    -790.05824979096  5.4E-03  3.8E-05  5.8E-04
etot    6  N  Y  2  U    -790.05827787443  2.8E-05  2.2E-05  3.8E-04
etot    7  N  Y  2  U    -790.05828462123  6.7E-06  9.5E-06  2.5E-04
etot    8  N  Y  2  U    -790.05828713447  2.5E-06  1.2E-05  2.0E-04
etot    9  N  Y  2  U    -790.05828907679  1.9E-06  6.3E-06  3.8E-05
etot   10  N  Y  2  U    -790.05828937433  3.0E-07  4.5E-06  2.0E-05
etot   11  N  N  2  U    -790.05828949815  1.2E-07  0.0E+00  0.0E+00
  
  
 Energy components, in hartrees:
   (A)  Nuclear repulsion............    1332.42130862529
   (E)  Total one-electron terms.....   -3698.19364364035
   (I)  Total two-electron terms.....    1575.71404551691
   (L)  Electronic energy............   -2122.47959812344  (E+I)
   (N)  Total energy.................    -790.05828949815  (A+L)
   (O)  Gas phase energy.............    -790.05828949815
  
                                 Total             Coulomb       Exchange+Corr.
 Total two-electron terms    1575.71404551691    1689.41261756174    -113.69857204482
   Hamiltonian  1........     810.27471337288     850.80860758293     -40.53389421005
   Hamiltonian  2........     798.51017675432     838.60400997880     -40.09383322448
  
 SCFE: SCF energy: UDFT(b3lyp)      -790.05828949815 hartrees   iterations:  11
  
 
 Alpha HOMO energy:    -0.37047
 Alpha LUMO energy:    -0.13992
 
  Alpha Orbital energies (hartrees): 
   -19.32584   -19.28052   -14.53282   -10.39959   -10.38845   -10.38176
   -10.37340   -10.37029   -10.34762   -10.32896   -10.32353   -10.32263
   -10.32187   -10.32079   -10.31743   -10.30939   -10.30768   -10.29068
    -1.20822    -1.16464    -1.08609    -0.99849    -0.94440    -0.91975
    -0.89741    -0.89151    -0.87094    -0.83878    -0.81891    -0.80457
    -0.76265    -0.73734    -0.73046    -0.72423    -0.69190    -0.66951
    -0.66676    -0.62977    -0.62813    -0.62334    -0.61232    -0.61040
    -0.59532    -0.59145    -0.57771    -0.57690    -0.56084    -0.55200
    -0.55110    -0.52957    -0.52510    -0.52148    -0.51005    -0.50463
    -0.50191    -0.50002    -0.49165    -0.48877    -0.47102    -0.46661
    -0.45787    -0.45051    -0.43839    -0.42246    -0.41231    -0.39456
    -0.37775    -0.37047    -0.13992    -0.13699    -0.12200    -0.08092
    -0.05701    -0.03499    -0.02884    -0.01470    -0.01248    -0.00803
 
 
 Beta HOMO energy:    -0.35019
 Beta LUMO energy:    -0.32756
 
  Beta Orbital energies (hartrees): 
   -19.32338   -19.28038   -14.52315   -10.39825   -10.38834   -10.38178
   -10.37350   -10.37044   -10.34622   -10.32864   -10.32354   -10.32202
   -10.32096   -10.32066   -10.31795   -10.30831   -10.30746   -10.29062
    -1.20315    -1.16419    -1.06907    -0.99555    -0.94247    -0.91841
    -0.89457    -0.88969    -0.86749    -0.83538    -0.81682    -0.80379
    -0.76112    -0.73551    -0.72824    -0.71985    -0.69043    -0.66765
    -0.66117    -0.62703    -0.62555    -0.61799    -0.60904    -0.60639
    -0.59263    -0.58919    -0.57619    -0.57485    -0.55987    -0.55025
    -0.54583    -0.52726    -0.52339    -0.51996    -0.50682    -0.50330
    -0.50052    -0.49737    -0.48925    -0.48385    -0.46660    -0.46407
    -0.45712    -0.44952    -0.43121    -0.41265    -0.38687    -0.37481
    -0.35019    -0.32756    -0.13428    -0.12858    -0.11679    -0.07913
    -0.05524    -0.03383    -0.02813    -0.01256    -0.00937
 
  
  
    Unrestricted Spin Properties ...
    Sz*(Sz+1)      0.750
    <S**2> ...     0.754
  
  
  Peak memory usage:   6748 Mb
  
  end of program scf
   
 Time(scf)  user:      195.1  user+sys:      195.1  wallclock:       13.8
  
  start of program der1a
  
  Peak memory usage:   4838 Mb
  
  end of program der1a
   
 Time(der1a)  user:        2.8  user+sys:        2.8  wallclock:        0.5
  
  start of program rwr
  
  Peak memory usage:   4745 Mb
  
  end of program rwr
   
 Time(rwr)  user:       28.7  user+sys:       28.7  wallclock:        3.9
  
  start of program der1b
  
   
  forces (hartrees/bohr) : total     
   
 atom  label           x              y              z
 ---- --------   -------------  -------------  -------------
    1 C1          1.754081E-02  -4.134971E-02  -5.706399E-03
    2 C2         -1.339052E-02   3.123913E-02   2.440827E-02
    3 C3          3.756507E-03   4.056290E-03  -6.863728E-04
    4 N4         -1.580580E-02  -5.471027E-03  -3.228348E-02
    5 C5          7.227437E-04  -1.237627E-02   1.140791E-02
    6 C6         -1.081212E-02  -2.668938E-03   5.050487E-03
    7 C7          1.196806E-02   5.679260E-03  -5.518422E-03
    8 O8         -1.152189E-02   7.759778E-03  -1.100258E-02
    9 C9         -9.670786E-03  -1.046022E-02   1.129667E-02
   10 C10         7.111096E-03  -5.943365E-03  -4.877123E-03
   11 C11         5.487496E-03   4.358947E-04   4.105054E-03
   12 C12        -6.092816E-03  -1.079369E-03  -1.590305E-03
   13 C13         4.967030E-03   7.750023E-03  -6.671951E-04
   14 C14        -7.969899E-03  -5.679645E-03  -1.988936E-03
   15 C15         1.425723E-02   2.051024E-02   1.726909E-02
   16 C16         1.158934E-03   1.030395E-02  -3.118505E-02
   17 C17        -1.542225E-03   1.201053E-02   3.595019E-02
   18 O18         2.038052E-03   4.309018E-03  -9.865702E-05
   19 H19         8.204184E-03   9.413088E-03   4.700510E-03
   20 H20         2.977688E-03   7.580717E-03  -5.668029E-03
   21 H21         9.902554E-03  -4.607937E-03   1.650816E-03
   22 H22        -9.354203E-03  -2.659235E-03  -2.993673E-04
   23 H23         2.366634E-03   2.056541E-03  -7.378963E-05
   24 H24         7.309367E-04   1.234151E-03  -3.270523E-04
   25 H25         1.552805E-03   1.517223E-03  -1.791671E-03
   26 H26        -2.244652E-03   3.247419E-04   1.191038E-02
   27 H27        -2.624903E-03   2.331347E-03  -2.111879E-03
   28 H28        -6.141291E-04   1.671109E-03  -2.344695E-03
   29 H29         1.880478E-04  -6.715030E-04  -1.169520E-03
   30 H30        -7.527651E-04   2.432763E-03  -2.536077E-04
   31 H31         1.112532E-03  -5.224751E-04  -9.995174E-05
   32 H32         1.625662E-03   1.310981E-03  -1.801831E-03
   33 H33        -1.895453E-03  -1.394253E-03   1.916190E-03
   34 H34        -3.162333E-05  -1.106787E-03   1.422610E-03
   35 H35         2.002516E-03  -3.755471E-03  -1.261764E-03
   36 H36        -1.622124E-04  -1.502440E-02  -5.407065E-03
   37 H37        -5.342150E-03  -8.616607E-03   3.628406E-04
   38 H38        -4.635981E-03  -9.254570E-03   2.477202E-03
   39 H39         1.185589E-03  -9.355467E-03  -5.997527E-04
   40 H40        -4.849091E-04   9.432360E-03  -1.570678E-02
   41 H41         3.999797E-03  -5.978164E-04   1.229231E-04
 -------------   -------------  -------------  -------------
     total       -9.213246E-05   7.640763E-04  -4.701404E-04
   
  Peak memory usage:   6741 Mb
  
  end of program der1b
   
 Time(der1b)  user:       41.2  user+sys:       41.2  wallclock:        3.1
  
  start of program geopt
  
 ----------------------------------------------------------------------------
  Geometry optimization step  4
  Total energy:      -790.05828949815 hartrees
 ----------------------------------------------------------------------------
  
  
  Level shifts adjusted to satisfy step-size constraints
   Step size:    0.3000618
   Cos(theta):   0.8701156
   Final level shift:  -2.6685713E-01
  
  energy change:          -4.2297E-02 .  (  5.0000E-05 )
  gradient maximum:        4.7723E-02 .  (  4.5000E-04 )
  gradient rms:            1.1858E-02 .  (  3.0000E-04 )
  displacement maximum:    1.1414E-01 .  (  1.8000E-03 )
  displacement rms:        2.3410E-02 .  (  1.2000E-03 )
  
  predicted energy change:  -2.5850E-02
  step size:     0.25963
  trust radius:  0.30000
  
  molecular structure not yet converged...
  
  center of mass moved by:
     x:    -1.3134E-02     y:     5.5820E-03     z:    -1.6992E-02
  
  new geometry: 
                                   angstroms
  atom               x                 y                 z
  C1            1.3141283374      1.7381537893      0.7336940235 
  C2            2.6920381451      1.0443221322      0.2353404232 
  C3            3.7645464196      2.1380427854      0.3951934875 
  N4            3.0847426041     -0.1645851833      1.0399250765 
  C5            4.4537109237     -0.6694335221      0.9338741960 
  C6            4.7636761520     -1.9083619765      1.8180317094 
  C7            4.2034887838     -3.3179711156      1.5239352847 
  O8            2.7499945453     -3.5074408141      1.6636838929 
  C9            2.3231930378     -4.8202621008      1.4282038915 
  C10           2.9915133078     -5.8560001367      2.1135618580 
  C11           2.6911419556     -7.1880118155      1.8665569346 
  C12           1.6180532173     -7.5199654147      1.0202720359 
  C13           0.8444828981     -6.4991629274      0.4771058276 
  C14           1.1885665202     -5.1375325212      0.6163476019 
  C15           0.3141506792     -4.1806946658     -0.1580172466 
  C16           0.4130866196     -2.7125303258      0.1522101466 
  C17           0.3064668435     -1.7932178624     -0.8345097400 
  O18           6.2054354187     -2.1086260044      1.7494204362 
  H19           1.0311713718      2.4552035706     -0.0386247396 
  H20           1.4957831549      2.1725266851      1.7176948508 
  H21           0.4500081535      1.0666189468      0.8183085904 
  H22           2.6781207217      0.7473891966     -0.8247154356 
  H23           3.8700839574      2.3942010588      1.4542967831 
  H24           3.4570280242      3.0397094482     -0.1390115717 
  H25           4.7430528287      1.8487156064      0.0058227651 
  H26           2.3898450266     -0.9135895153      0.9150563625 
  H27           5.1627171283      0.0835797152      1.2802078873 
  H28           4.6878267912     -0.9057096993     -0.1207614980 
  H29           4.5770166998     -1.6423220672      2.8610037352 
  H30           4.7433563337     -3.9803811024      2.2037832013 
  H31           4.4644893762     -3.6016725275      0.4950585656 
  H32           3.7676809760     -5.6194256091      2.8302518428 
  H33           3.2865310806     -7.9619672405      2.3368421954 
  H34           1.3730605613     -8.5556790020      0.8176150265 
  H35          -0.0407672190     -6.7228954390     -0.1089324350 
  H36          -0.7457624096     -4.3822195651      0.0649888511 
  H37           0.4888480858     -4.2718971620     -1.2378210000 
  H38           0.5026205589     -2.3521726315      1.1716559377 
  H39           0.1815672963     -1.9303847008     -1.9009159816 
  H40           0.2031713960     -0.7796947067     -0.4660437280 
  H41           6.4879959708     -2.2339949811      0.8176642429 
   
  nuclear repulsion energy.......    1323.671855048 hartrees
  -------------------------------------------------
 /  end of geometry optimization iteration   4   /
 -------------------------------------------------
   
  Peak memory usage:   4726 Mb
  
  end of program geopt
   
 Time(geopt)  user:        7.3  user+sys:        7.3  wallclock:        0.6
  
  start of program onee
  
  smallest eigenvalue of S:    6.061E-04
  number of canonical orbitals.....          208
  Peak memory usage:   4838 Mb
  
  end of program onee
   
 Time(onee)  user:        2.5  user+sys:        2.5  wallclock:        0.5
  
  start of program probe
  
  Peak memory usage:   4756 Mb
  
  end of program probe
   
 Time(probe)  user:        2.1  user+sys:        2.1  wallclock:        0.4
  
  start of program grid
  
   grid     grid set  grid #  grid sym
  ------    --------  ------  --------
  coarse        0        0        1
  medium        2        1        1
  fine          0        0        1
  ultrafine     4        2        1
  charge       -1        3        1
  gradient      4        2        1
  density       0        0        1
  DFT-fine    -11        4        1
  DFT-med.    -10        5        1
  DFT-grad    -12        6        1
  DFT-der2      0        0        1
  DFT-cphf      0        0        1
  LMP2-enrg     4        2        1
  LMP2-grad     2        1        1
  DFT-cphf2     0        0        1
  PBF-dens      0        0        1
  plotting      0        0        1
  Rel-grad    -17        0        1
  
  number of gridpoints: 
     atom        C1       C2       C3       N4       C5       C6       C7
  grid # 1       77       89       79      100       84       89       84
  grid # 2      269      318      266      363      288      310      284
  grid # 3        6        6        6      110        6        6        6
  grid # 4     4304     4304     4304     4304     4304     4304     4304
  grid # 5     1192     1192     1192     1192     1192     1192     1192
  grid # 6     5226     5226     5226     5226     5226     5226     5226
   
  number of gridpoints: 
     atom        O8       C9      C10      C11      C12      C13      C14
  grid # 1      113       97       96       97       97       95      101
  grid # 2      447      355      337      335      337      338      364
  grid # 3      272      137      183      223      234      210      152
  grid # 4     4304     4304     4304     4304     4304     4304     4304
  grid # 5     1192     1192     1192     1192     1192     1192     1192
  grid # 6     5226     5226     5226     5226     5226     5226     5226
   
  number of gridpoints: 
     atom       C15      C16      C17      O18      H19      H20      H21
  grid # 1       86       96       84      113      110      110      104
  grid # 2      288      336      309      428      436      438      425
  grid # 3        8       59      103      593      961      947      668
  grid # 4     4304     4304     4304     4304     4304     4304     4304
  grid # 5     1192     1192     1192     1192     1192     1192     1192
  grid # 6     5226     5226     5226     5226     5226     5226     5226
   
  number of gridpoints: 
     atom       H22      H23      H24      H25      H26      H27      H28
  grid # 1      108      109      108      107      104      104      106
  grid # 2      432      430      435      424      413      417      428
  grid # 3      657      823      956      800      235      508      600
  grid # 4     4304     4304     4304     4304     4304     4304     4304
  grid # 5     1192     1192     1192     1192     1192     1192     1192
  grid # 6     5226     5226     5226     5226     5226     5226     5226
   
  number of gridpoints: 
     atom       H29      H30      H31      H32      H33      H34      H35
  grid # 1      110      103      107      108      118      118      114
  grid # 2      437      415      434      432      452      453      444
  grid # 3      933      500      725      865     1333     1359     1038
  grid # 4     4304     4304     4304     4304     4304     4304     4304
  grid # 5     1192     1192     1192     1192     1192     1192     1192
  grid # 6     5226     5226     5226     5226     5226     5226     5226
   
  number of gridpoints: 
     atom       H36      H37      H38      H39      H40      H41    total
  grid # 1      108      107      113      117      107      111     4188
  grid # 2      439      436      429      445      420      442    15928
  grid # 3      947      819      710     1209      513     1018    21444
  grid # 4     4304     4304     4304     4304     4304     4304   176464
  grid # 5     1192     1192     1192     1192     1192     1192    48872
  grid # 6     5226     5226     5226     5226     5226     5226   214266
   
  Peak memory usage:   4788 Mb
  
  end of program grid
   
 Time(grid)  user:       23.6  user+sys:       23.6  wallclock:        2.1
  
  start of program rwr
  
  Peak memory usage:   4745 Mb
  
  end of program rwr
   
 Time(rwr)  user:       38.9  user+sys:       38.9  wallclock:        4.2
  
  start of program scf
  
 Energy computed with NOPS off.
  
       i  u  d  i  g                   
       t  p  i  c  r                                 RMS    maximum
       e  d  i  u  i                       energy  density   DIIS  
       r  t  s  t  d       total energy    change  change    error 
  
etot    1  N  N  2  U    -790.03817597050           1.3E-03  1.6E-02
etot    2  Y  Y  6  M    -790.08000079563  4.2E-02  5.1E-04  2.0E-03
etot    3  N  Y  2  U    -790.07698220861 -3.0E-03  8.1E-04  1.0E-02
etot    4  Y  Y  6  M    -790.07707152674  8.9E-05  4.7E-04  1.3E-02
etot    5  Y  Y  6  M    -790.08039212677  3.3E-03  4.9E-05  1.8E-03
etot    6  N  Y  2  U    -790.08046622163  7.4E-05  2.1E-05  4.5E-04
etot    7  N  Y  2  U    -790.08047307334  6.9E-06  8.2E-06  1.2E-04
etot    8  N  Y  2  U    -790.08047382584  7.5E-07  6.6E-06  9.0E-05
etot    9  N  Y  2  U    -790.08047408071  2.5E-07  5.4E-06  1.1E-04
etot   10  N  Y  2  U    -790.08047442094  3.4E-07  2.3E-06  3.4E-05
[...]
  H32           3.6057635141     -4.2638354466      3.0317194217 
  H33           2.0287712140     -5.6822850280      4.2987102505 
  H34          -0.0606119472     -6.5011109549      3.2145910187 
  H35          -0.5499287998     -5.9048346565      0.8590077833 
  H36           0.1548561925     -5.0580309722     -1.2301541940 
  H37           1.8244410501     -4.5585759401     -1.4871437588 
  H38          -0.3742389741     -2.6519358919     -0.4308037618 
  H39           1.7499810639     -2.3865361390     -2.6540679074 
  H40           0.5126429528     -1.1188310942     -2.1291175408 
  H41           6.9746061969     -2.1119816278      0.4657784947 
   
  nuclear repulsion energy.......    1393.496791590 hartrees
  -------------------------------------------------
 /  end of geometry optimization iteration  29   /
 -------------------------------------------------
   
  Peak memory usage:   4726 Mb
  
  end of program geopt
   
 Time(geopt)  user:        7.7  user+sys:        7.7  wallclock:        0.6
  
  start of program onee
  
  smallest eigenvalue of S:    5.818E-04
  number of canonical orbitals.....          208
  Peak memory usage:   4838 Mb
  
  end of program onee
   
 Time(onee)  user:        2.0  user+sys:        2.0  wallclock:        0.5
  
  start of program probe
  
  Peak memory usage:   4756 Mb
  
  end of program probe
   
 Time(probe)  user:        1.8  user+sys:        1.8  wallclock:        0.4
  
  start of program grid
  
   grid     grid set  grid #  grid sym
  ------    --------  ------  --------
  coarse        0        0        1
  medium        2        1        1
  fine          0        0        1
  ultrafine     4        2        1
  charge       -1        3        1
  gradient      4        2        1
  density       0        0        1
  DFT-fine    -11        4        1
  DFT-med.    -10        5        1
  DFT-grad    -12        6        1
  DFT-der2      0        0        1
  DFT-cphf      0        0        1
  LMP2-enrg     4        2        1
  LMP2-grad     2        1        1
  DFT-cphf2     0        0        1
  PBF-dens      0        0        1
  plotting      0        0        1
  Rel-grad    -17        0        1
  
  number of gridpoints: 
     atom        C1       C2       C3       N4       C5       C6       C7
  grid # 1       79       92       78      100       83       90       82
  grid # 2      269      309      267      349      293      311      288
  grid # 3        6        6        6       68        6        6        6
  grid # 4     4304     4304     4304     4304     4304     4304     4304
  grid # 5     1192     1192     1192     1192     1192     1192     1192
  grid # 6     5226     5226     5226     5226     5226     5226     5226
   
  number of gridpoints: 
     atom        O8       C9      C10      C11      C12      C13      C14
  grid # 1      113      100       96       96       97       96      101
  grid # 2      433      354      330      333      333      337      361
  grid # 3      110       96      135      199      208      190      107
  grid # 4     4304     4304     4304     4304     4304     4304     4304
  grid # 5     1192     1192     1192     1192     1192     1192     1192
  grid # 6     5226     5226     5226     5226     5226     5226     5226
   
  number of gridpoints: 
     atom       C15      C16      C17      O18      H19      H20      H21
  grid # 1       86       94       86      112      110      106      105
  grid # 2      286      338      307      428      438      429      427
  grid # 3        6       55       75      646      990      601      491
  grid # 4     4304     4304     4304     4304     4304     4304     4304
  grid # 5     1192     1192     1192     1192     1192     1192     1192
  grid # 6     5226     5226     5226     5226     5226     5226     5226
   
  number of gridpoints: 
     atom       H22      H23      H24      H25      H26      H27      H28
  grid # 1      108      107      110      109      101      105      108
  grid # 2      430      425      438      431      403      420      433
  grid # 3      669      726      977      953      147      499      754
  grid # 4     4304     4304     4304     4304     4304     4304     4304
  grid # 5     1192     1192     1192     1192     1192     1192     1192
  grid # 6     5226     5226     5226     5226     5226     5226     5226
   
  number of gridpoints: 
     atom       H29      H30      H31      H32      H33      H34      H35
  grid # 1      107      109      109      110      118      118      115
  grid # 2      424      429      434      432      451      451      442
  grid # 3      437      724      774      672     1321     1338     1047
  grid # 4     4304     4304     4304     4304     4304     4304     4304
  grid # 5     1192     1192     1192     1192     1192     1192     1192
  grid # 6     5226     5226     5226     5226     5226     5226     5226
   
  number of gridpoints: 
     atom       H36      H37      H38      H39      H40      H41    total
  grid # 1      109      108      115      117      116      111     4212
  grid # 2      436      431      439      441      449      444    15903
  grid # 3      894      722      905     1011     1146     1129    20858
  grid # 4     4304     4304     4304     4304     4304     4304   176464
  grid # 5     1192     1192     1192     1192     1192     1192    48872
  grid # 6     5226     5226     5226     5226     5226     5226   214266
   
  Peak memory usage:   4788 Mb
  
  end of program grid
   
 Time(grid)  user:       25.6  user+sys:       25.6  wallclock:        2.1
  
  start of program rwr
  
  Peak memory usage:   4745 Mb
  
  end of program rwr
   
 Time(rwr)  user:       43.2  user+sys:       43.2  wallclock:        4.0
  
  start of program scf
  
 Energy computed with NOPS off.
  
       i  u  d  i  g                   
       t  p  i  c  r                                 RMS    maximum
       e  d  i  u  i                       energy  density   DIIS  
       r  t  s  t  d       total energy    change  change    error 
  
etot    1  N  N  2  U    -790.13622160219           7.7E-05  1.6E-03
etot    2  Y  Y  6  M    -790.13641235998  1.9E-04  1.4E-05  1.5E-04
etot    3  N  Y  2  U    -790.13641344217  1.1E-06  1.0E-05  1.5E-04
etot    4  N  Y  2  U    -790.13641455930  1.1E-06  3.5E-06  8.2E-05
etot    5  N  N  2  U    -790.13641471960  1.6E-07  0.0E+00  0.0E+00
  
  
 Energy components, in hartrees:
   (A)  Nuclear repulsion............    1393.49679158982
   (E)  Total one-electron terms.....   -3819.95739962350
   (I)  Total two-electron terms.....    1636.32419331409
   (L)  Electronic energy............   -2183.63320630942  (E+I)
   (N)  Total energy.................    -790.13641471960  (A+L)
   (O)  Gas phase energy.............    -790.13641471960
  
                                 Total             Coulomb       Exchange+Corr.
 Total two-electron terms    1636.32419331409    1750.09238997274    -113.76819665865
   Hamiltonian  1........     841.11005046841     881.68943958925     -40.57938912084
   Hamiltonian  2........     828.30079810658     868.40295038349     -40.10215227691
  
 SCFE: SCF energy: UDFT(b3lyp)      -790.13641471960 hartrees   iterations:   5
  
 
 Alpha HOMO energy:    -0.35429
 Alpha LUMO energy:    -0.12776
 
  Alpha Orbital energies (hartrees): 
   -19.32896   -19.30189   -14.56480   -10.40869   -10.39193   -10.38645
   -10.38643   -10.38042   -10.32307   -10.31728   -10.31538   -10.31536
   -10.31242   -10.30876   -10.30559   -10.30556   -10.30411   -10.29735
    -1.20698    -1.18527    -1.12197    -0.98649    -0.94945    -0.92421
    -0.91313    -0.87772    -0.87238    -0.84591    -0.83156    -0.80298
    -0.78339    -0.74461    -0.73264    -0.71802    -0.69971    -0.68108
    -0.66869    -0.65787    -0.64305    -0.62736    -0.60961    -0.60401
    -0.60231    -0.58945    -0.57640    -0.56313    -0.56034    -0.55659
    -0.54943    -0.54449    -0.53401    -0.53072    -0.52304    -0.51359
    -0.50948    -0.50475    -0.49365    -0.48845    -0.48172    -0.47252
    -0.46672    -0.46061    -0.45573    -0.43952    -0.40967    -0.38352
    -0.37045    -0.35429    -0.12776    -0.11885    -0.10578    -0.09092
    -0.06483    -0.05413    -0.03709    -0.02265    -0.01709    -0.00991
 
 
 Beta HOMO energy:    -0.34889
 Beta LUMO energy:    -0.30399
 
  Beta Orbital energies (hartrees): 
   -19.32619   -19.30075   -14.55066   -10.40699   -10.39189   -10.38678
   -10.38675   -10.38033   -10.32255   -10.31603   -10.31535   -10.31517
   -10.31236   -10.30878   -10.30582   -10.30559   -10.30342   -10.29736
    -1.20199    -1.18221    -1.09508    -0.98533    -0.94626    -0.92350
    -0.90896    -0.87665    -0.86879    -0.84293    -0.82827    -0.80251
    -0.78067    -0.73923    -0.73165    -0.71626    -0.69362    -0.68017
    -0.66454    -0.65574    -0.63726    -0.62484    -0.60549    -0.60293
    -0.59430    -0.58575    -0.57601    -0.55923    -0.55762    -0.55058
    -0.54783    -0.54260    -0.53166    -0.52689    -0.52129    -0.50988
    -0.50710    -0.49705    -0.49222    -0.48667    -0.47907    -0.47172
    -0.46532    -0.45796    -0.44325    -0.42519    -0.38345    -0.36944
    -0.34889    -0.30399    -0.12656    -0.11516    -0.10481    -0.08897
    -0.06324    -0.05303    -0.03572    -0.02138    -0.01455
 
  
  
    Unrestricted Spin Properties ...
    Sz*(Sz+1)      0.750
    <S**2> ...     0.755
  
  
  Peak memory usage:   6748 Mb
  
  end of program scf
   
 Time(scf)  user:       90.9  user+sys:       90.9  wallclock:        6.7
  
  start of program der1a
  
  Peak memory usage:   4838 Mb
  
  end of program der1a
   
 Time(der1a)  user:        2.6  user+sys:        2.6  wallclock:        0.5
  
  start of program rwr
  
  Peak memory usage:   4745 Mb
  
  end of program rwr
   
 Time(rwr)  user:       33.6  user+sys:       33.6  wallclock:        4.4
  
  start of program der1b
  
   
  forces (hartrees/bohr) : total     
   
 atom  label           x              y              z
 ---- --------   -------------  -------------  -------------
    1 C1          3.591158E-05  -1.079856E-04   9.276674E-05
    2 C2         -1.571630E-05  -9.932224E-05  -8.284181E-05
    3 C3          1.337085E-05   9.286861E-05   2.408497E-05
    4 N4         -3.717408E-05   1.287493E-04  -1.679822E-04
    5 C5          2.716048E-04  -2.134823E-04   2.745215E-04
    6 C6         -1.988342E-04   1.240718E-05  -1.017599E-04
    7 C7          1.081696E-04  -1.132421E-04  -5.120105E-05
    8 O8         -1.062640E-04   1.590635E-04   9.903591E-05
    9 C9         -1.962430E-05  -7.555570E-05  -1.419443E-04
   10 C10        -1.454846E-04  -1.056884E-04   5.638617E-05
   11 C11         6.721451E-05   8.741574E-05  -1.821908E-05
   12 C12         8.670837E-07   1.143336E-05   1.679440E-05
   13 C13        -2.359257E-05   3.563110E-05  -2.305892E-05
   14 C14         1.112535E-04  -6.722218E-05   4.961411E-05
   15 C15        -5.848150E-05   6.133377E-05  -9.257189E-05
   16 C16         7.117559E-05   2.307654E-05   1.148946E-04
   17 C17        -2.560317E-05   2.889991E-05  -1.212078E-04
   18 O18         8.715871E-05   1.171732E-04  -3.719739E-05
   19 H19         1.566017E-05   5.414195E-05  -2.159685E-05
   20 H20        -1.944302E-05   3.356102E-05  -3.821892E-05
   21 H21         2.335444E-05   6.709401E-05  -4.809992E-05
   22 H22        -3.111776E-06  -4.341682E-05   4.517669E-05
   23 H23         2.076989E-05  -1.946294E-05  -1.704207E-06
   24 H24         5.034021E-05   2.417215E-05  -8.941414E-06
   25 H25         1.349187E-05  -1.057999E-05   1.803079E-05
   26 H26        -2.932398E-05  -3.631379E-05  -9.936805E-06
   27 H27        -1.806239E-05   4.162763E-05  -4.365540E-05
   28 H28        -2.500943E-05   6.584881E-05  -4.079934E-05
   29 H29         4.537604E-05  -6.537337E-05  -3.198064E-05
   30 H30         3.941371E-05   4.605375E-05  -5.591159E-05
   31 H31         3.162138E-05  -1.794737E-05  -2.914378E-05
   32 H32        -5.088791E-05   3.078476E-05  -1.749589E-05
   33 H33        -9.080482E-06  -1.467047E-05  -4.389804E-05
   34 H34        -1.846876E-05   9.687645E-06  -1.838878E-05
   35 H35        -1.945516E-05   6.019256E-06  -3.289729E-05
   36 H36        -6.155947E-06   4.200101E-05   2.231124E-05
   37 H37         1.745830E-05   1.822090E-05  -2.385593E-05
   38 H38        -2.962978E-05   1.482408E-05  -4.367357E-05
   39 H39         2.494474E-05   1.125006E-05  -6.922920E-06
   40 H40         1.191765E-05   8.052119E-06   1.165456E-05
   41 H41        -2.244305E-05  -6.472417E-05   5.546125E-06
 -------------   -------------  -------------  -------------
     total        1.792283E-04   1.764040E-04  -5.242879E-04
   
  Peak memory usage:   6742 Mb
  
  end of program der1b
   
 Time(der1b)  user:       45.3  user+sys:       45.3  wallclock:        3.3
  
  start of program geopt
  
 ----------------------------------------------------------------------------
  Geometry optimization step 30
  Total energy:      -790.13641471960 hartrees
 ----------------------------------------------------------------------------
  
  energy change:          -1.1588E-08 !  (  5.0000E-05 )
  gradient maximum:        3.0884E-04 *  (  4.5000E-04 )
  gradient rms:            7.1926E-05 *  (  3.0000E-04 )
  displacement maximum:    1.0557E-02 .  (  1.8000E-03 )
  displacement rms:        1.9332E-03 .  (  1.2000E-03 )
  
  predicted energy change:  -2.3599E-06
  step size:     0.02144
  trust radius:  0.30000
  
  ********************************************************
  **           Geometry optimization complete           **
  ********************************************************
  
  Checking the geometry optimization convergence pattern ...
  
  best                    worst
  ==0=====1=====2=====3=====4==
          ^                    
  
  Convergence category 1: non-monotonic convergence to an optimal structure.
  Geometry optimization was OK.
  
  Number of imaginary frequencies:   0
  
  center of mass moved by:
     x:     0.0000E+00     y:     0.0000E+00     z:     0.0000E+00
  
  final geometry: 
                                   angstroms
  atom               x                 y                 z
  C1            1.6630523551     -0.6959018560      2.3396718618 
  C2            2.3019120296      0.1098767457      1.1742907722 
  C3            3.1140830950      1.3079725292      1.6704703464 
  N4            3.0713444070     -0.7980161049      0.3009978747 
  C5            4.5032721196     -0.9060532706      0.2247588169 
  C6            5.0818760353     -2.0345126751      1.1751598397 
  C7            4.6943140882     -3.4308698908      0.6645138652 
  O8            3.2567491640     -3.4903907241      0.4357145585 
  C9            2.4125098669     -4.3012442856      1.2207935905 
  C10           2.7036053430     -4.6254204366      2.5510895174 
  C11           1.8091416519     -5.4229073304      3.2693304510 
  C12           0.6333244021     -5.8804473430      2.6595966053 
  C13           0.3562585485     -5.5384738257      1.3304510004 
  C14           1.2349652298     -4.7439792356      0.5804134573 
  C15           0.9401210727     -4.3821275457     -0.8650713449 
  C16           0.4630737398     -2.9560634273     -1.0602968446 
  C17           0.9495432369     -2.1014388637     -1.9743982206 
  O18           6.4976694756     -1.8920966132      1.2944599424 
  H19           0.9773003818     -0.0388582405      2.8826625974 
  H20           2.4305654231     -1.0454652836      3.0369613151 
  H21           1.0983083735     -1.5583509538      1.9755645958 
  H22           1.4788398262      0.4652912581      0.5359289751 
  H23           3.9125421991      1.0106545328      2.3587736251 
  H24           2.4462002789      1.9781646149      2.2192300601 
  H25           3.5478508497      1.8800372547      0.8442747531 
  H26           2.5195774947     -1.4683448049     -0.2471167957 
  H27           4.9753961997      0.0300463119      0.5226135060 
  H28           4.7880745485     -1.1520674449     -0.8052751423 
  H29           4.6972969494     -1.8700028980      2.1837257854 
  H30           5.0172544978     -4.1992567456      1.3700928599 
  H31           5.1647321293     -3.6176144960     -0.3081032245 
  H32           3.6057635141     -4.2638354466      3.0317194217 
  H33           2.0287712140     -5.6822850280      4.2987102505 
  H34          -0.0606119472     -6.5011109549      3.2145910187 
  H35          -0.5499287998     -5.9048346565      0.8590077833 
  H36           0.1548561925     -5.0580309722     -1.2301541940 
  H37           1.8244410501     -4.5585759401     -1.4871437588 
  H38          -0.3742389741     -2.6519358919     -0.4308037618 
  H39           1.7499810639     -2.3865361390     -2.6540679074 
  H40           0.5126429528     -1.1188310942     -2.1291175408 
  H41           6.9746061969     -2.1119816278      0.4657784947 
   
  principal moments of inertia:
        amu*angstrom^2:      992.32328     1687.29963     1943.63285
                g*cm^2: 1.64779137E-37 2.80182660E-37 3.22747787E-37
   
  rotational constants:
               cm^(-1):      0.01698804      0.00999089      0.00867326
                   GHz:      0.50928867      0.29951942      0.26001773
   
  nuclear repulsion energy.......    1393.496791590 hartrees
  -------------------------------------------------
 /  end of geometry optimization iteration  30   /
 -------------------------------------------------
   
  Peak memory usage:   4821 Mb
  
  end of program geopt
   
 Time(geopt)  user:       11.7  user+sys:       11.7  wallclock:        1.1
  
  start of program ch
  
  Moments from quantum mechanical wavefunction:
  Dipole Moments  (Debye)
     X=     1.3034     Y=     3.3171     Z=    -1.0746  Tot=     3.7225
  
  gridpoints used for charge fit        19526
    out of a possible maximum of        20858
  
   Electrostatic potential fitting constrained to reproduce
     total charge:                yes
     dipole moment:               yes
     traceless quadrupole moment: no 
     traceless octapole moment:   no 
  
  Atomic charges from electrostatic potential: 
   
 Atom       C1           C2           C3           N4           C5      
 Charge   -0.33437      0.24942     -0.41980     -0.16563     -0.08516
   
 Atom       C6           C7           O8           C9           C10     
 Charge    0.30539     -0.03744     -0.32429      0.37079     -0.28955
   
 Atom       C11          C12          C13          C14          C15     
 Charge   -0.07007     -0.13987     -0.12481     -0.04173     -0.16913
   
 Atom       C16          C17          O18          H19          H20     
 Charge    0.03011     -0.41874     -0.68154      0.14350      0.09601
   
 Atom       H21          H22          H23          H24          H25     
 Charge    0.08614      0.07734      0.14096      0.15068      0.13263
   
 Atom       H26          H27          H28          H29          H30     
 Charge    0.21017      0.12623      0.11090      0.11472      0.11586
   
 Atom       H31          H32          H33          H34          H35     
 Charge    0.10403      0.16047      0.14687      0.15376      0.14708
   
 Atom       H36          H37          H38          H39          H40     
 Charge    0.11788      0.09517      0.10199      0.17920      0.16673
   
 Atom       H41     
 Charge    0.46806
  
  sum of atomic charges:     1.000000
   
 RMS Error   5.96E-04 hartrees
 
  
  Moments from electrostatic potential charges:
  Dipole Moments  (Debye)
     X=     1.3034     Y=     3.3171     Z=    -1.0746  Tot=     3.7225
  
  Peak memory usage:   4833 Mb
  
  end of program ch
   
 Time(ch)  user:        6.9  user+sys:        6.9  wallclock:        2.8

 Total cpu seconds     user:    8911.707   user+sys:    8911.707
  
 Total elapsed time:    857 seconds

Job alprenolol_1 completed on n029 at Sun Jan  8 22:38:34 2017
