Job colchicine_1 started on n045 at Sun Jan  8 22:24:26 2017
jobid: u01-0-58730267

  +--------------------------------------------------------------------+
  |  Jaguar version 9.3, release  15                                   |
  |                                                                    |
  |  Copyright Schrodinger, Inc.                                       |
  |  All Rights Reserved.                                              |
  |                                                                    |
  |  The following have contributed to Jaguar (listed alphabetically): |
  |  Mike Beachy, Art Bochevarov, Dale Braden, Yixiang Cao,            |
  |  Chris Cortis, Rich Friesner, Bill Goddard, Hod Greeley,           |
  |  Tom Hughes, Leif Jacobson, Jean-Marc Langlois,                    |
  |  Daniel Mainz, Rob Murphy, Dean Philipp,                           |
  |  Tom Pollard, Murco Ringnalda, Mark Watson.                        |
  |                                                                    |
  |  Use of this program should be acknowledged in publications as:    |
  |                                                                    |
  |  Jaguar, version 9.3, Schrodinger, Inc., New York, NY, 2016.       |
  |                                                                    |
  |  A. D. Bochevarov, E. Harder, T. F. Hughes, J. R. Greenwood,       |
  |  D. A. Braden, D. M. Philipp, D. Rinaldo, M. D. Halls,             |
  |  J. Zhang, R. A. Friesner, "Jaguar: A High-Performance Quantum     |
  |  Chemistry Software Program with Strengths in Life and Materials   |
  |  Sciences", Int. J. Quantum Chem., 2013, 113(18), 2110-2142.       |
  +--------------------------------------------------------------------+
  
  start of program pre
  
  Job name: colchicine_1
  Executables used: /home/applications/Schrodinger_Suites_2016-3/jaguar-v9.3/bin/Linux-x86_64
  Temporary files : /scratch/Schrodinger_Suites/pbeni001/colchicine_1#u01-0-58730267
  Maestro file (input):  colchicine_1.mae
  Maestro file (output): colchicine_1.01.mae
  
  basis set:             6-31g                           
  net molecular charge:    1
  multiplicity:            2
  
  Using up to  16 threads per process
  
  number of basis functions....          311
  
 Input geometry:
                                   angstroms
  atom               x                 y                 z
  C1            0.1810239000      4.0786299000      2.5195753000 
  C2            0.4079253000      2.6343554000      2.4873945000 
  N3            1.0142584000      2.0202124000      1.5403567000 
  C4            2.2982325000      2.3393493000      0.7246130000 
  H5            2.2592761000      1.7724410000     -0.2241329000 
  C6            3.0737998000      3.5902907000      0.5377522000 
  C7            2.6575040000      4.4956427000      1.6173604000 
  C8            3.6934961000      5.2404597000      2.2698659000 
  C9            3.3512901000      6.6404032000      2.3903518000 
  C10           4.1601635000      7.5761284000      2.9449752000 
  C11           5.3038288000      7.0297447000      3.4882030000 
  C12           5.5789801000      5.5096231000      3.4677149000 
  C13           4.7242087000      4.4877814000      2.8123397000 
  C14           4.4922785000      2.7004579000      2.5980118000 
  C15           3.3581911000      1.7108240000      1.6045141000 
  C16           2.8417887000      0.4353827000      1.7249957000 
  C17           2.8596741000      0.1226772000      3.1150185000 
  O18           2.0555792000      0.5893569000      3.9485729000 
  C19           4.1783618000     -0.3833713000      3.3888535000 
  C20           4.9904303000      0.6453201000      3.7243259000 
  C21           4.6155580000      2.0812121000      3.7824563000 
  O22           4.6136456000     -1.5695230000      2.8081325000 
  C23           3.5733298000     -2.3902990000      2.2286330000 
  O24           6.7385314000      5.3786021000      4.1768047000 
  C25           7.2590816000      4.1175526000      4.4265336000 
  O26           6.0541279000      8.0453052000      4.0290415000 
  C27           7.3091164000      7.9311758000      4.6413011000 
  O28           3.6978761000      8.8621196000      2.8494337000 
  C29           4.5027048000      9.9654305000      3.2715413000 
  O30          -0.1881840000      2.0189111000      3.5438876000 
  H31           0.4964028000      4.3280252000      1.5203192000 
  H32           0.7154166000      4.5677839000      3.3428940000 
  H33          -0.8549052000      4.3658607000      2.4788863000 
  H34           3.1985183000      3.9908994000     -0.4592861000 
  H35           4.1564780000      3.3869541000      0.6127084000 
  H36           2.3468858000      3.9586320000      2.5224669000 
  H37           1.9623545000      5.1993693000      1.1927625000 
  H38           2.3851079000      6.9800141000      2.0175857000 
  H39           1.9634683000      0.0061132000      1.1767732000 
  H40           6.0612397000      0.5175045000      3.6878091000 
  H41           3.6676693000      2.3426018000      4.2915202000 
  H42           3.8924313000     -3.4285965000      2.3207266000 
  H43           3.4263817000     -2.1840840000      1.1560422000 
  H44           2.6075693000     -2.2997209000      2.7434243000 
  H45           8.2125670000      4.2797939000      4.9412613000 
  H46           7.4461443000      3.6185782000      3.4798603000 
  H47           6.5883835000      3.5881130000      5.0990800000 
  H48           7.6602471000      8.9488732000      4.8696343000 
  H49           8.0362258000      7.4904563000      3.9608920000 
  H50           7.2093860000      7.4109072000      5.5929043000 
  H51           3.9881197000     10.9075758000      3.0352322000 
  H52           5.4585193000      9.9985601000      2.7373921000 
  H53           4.6372650000      9.9557636000      4.3575948000 
  H54          -0.3408919000      2.6231516000      4.2987164000 
   
  principal moments of inertia:
        amu*angstrom^2:     1710.27966     4802.74403     5917.10916
                g*cm^2: 2.83998584E-37 7.97514310E-37 9.82558970E-37
   
  rotational constants:
               cm^(-1):      0.00985665      0.00351000      0.00284896
                   GHz:      0.29549495      0.10522714      0.08540978
   
  Molecular weight:     399.17 amu
   
  Stoichiometry: C22NH25O6
  Molecular Point Group: C1      
  Point Group used: C1
  
 
Number of optimization coordinates:   176
Number of independent coordinates:    176
Number of non-redundant coordinates:  156
Number of frozen coordinates:           0
Number of harmonic constraints:         0
 
Number of geometric degrees of freedom:   156
Maximum geometric degrees of freedom:     156
 " " " " " excluding dummy atoms:         156
 
  nuclear repulsion energy.......    2914.929067700 hartrees
 
 Non-default options chosen:
   SCF calculation type: UDFT(b3lyp)                 
   UDFT=Becke_3_Parameter/HF+Slater+Becke88+VWN+LYP (B3LYP)
   Geometry will be optimized in redundant internal coordinates
   Electrostatic potential fit to point charges on atomic centers
   Electrostatic potential fitting constrained to reproduce
     total charge:                yes
     dipole moment:               yes
     traceless quadrupole moment: no 
     traceless octapole moment:   no 
  
 Temporary integer options set:
     73=  2
  
  Peak memory usage:   4803 Mb
  
  end of program pre
   
 Time(pre)  user:        4.6  user+sys:        4.6  wallclock:        1.1
  
  start of program onee
  
  smallest eigenvalue of S:    7.356E-04
  number of canonical orbitals.....          311
  Peak memory usage:   4838 Mb
  
  end of program onee
   
 Time(onee)  user:        3.2  user+sys:        3.2  wallclock:        0.5
  
  start of program hfig
  
  initial wavefunction generated automatically from atomic wavefunctions
  
  -------------------
  Alpha orbital space
  -------------------
 
  Irreducible     Total no   No of occupied orbitals 
  representation  orbitals   Shell_1  Shell_2    ...
  No Symm          311        106
  ------------------------
  Orbital occupation/shell    1.000
 
  ------------------
  Beta orbital space
  ------------------
 
  Irreducible     Total no   No of occupied orbitals 
  representation  orbitals   Shell_1  Shell_2    ...
  No Symm          311        105
  ------------------------
  Orbital occupation/shell    1.000
 
  
  
    Unrestricted Spin Properties ...
    Sz*(Sz+1) ..............     0.750
    <S**2> of initial guess      0.750
  
  
  Peak memory usage:   4756 Mb
  
  end of program hfig
   
 Time(hfig)  user:        5.6  user+sys:        5.6  wallclock:        0.9
  
  start of program probe
  
  Peak memory usage:   4756 Mb
  
  end of program probe
   
 Time(probe)  user:        3.3  user+sys:        3.3  wallclock:        0.5
  
  start of program grid
  
   grid     grid set  grid #  grid sym
  ------    --------  ------  --------
  coarse        0        0        1
  medium        2        1        1
  fine          0        0        1
  ultrafine     4        2        1
  charge       -1        3        1
  gradient      4        2        1
  density       0        0        1
  DFT-fine    -11        4        1
  DFT-med.    -10        5        1
  DFT-grad    -12        6        1
  DFT-der2      0        0        1
  DFT-cphf      0        0        1
  LMP2-enrg     4        2        1
  LMP2-grad     2        1        1
  DFT-cphf2     0        0        1
  PBF-dens      0        0        1
  plotting      0        0        1
  Rel-grad    -17        0        1
  
  number of gridpoints: 
     atom        C1       C2       N3       C4       H5       C6       C7
  grid # 1       76       95      108       90      109       86       79
  grid # 2      258      342      420      317      432      292      281
  grid # 3        6       64      278       15      909        7        6
  grid # 4     4304     4304     4304     4304     4304     4304     4304
  grid # 5     1192     1192     1192     1192     1192     1192     1192
  grid # 6     5226     5226     5226     5226     5226     5226     5226
   
  number of gridpoints: 
     atom        C8       C9      C10      C11      C12      C13      C14
  grid # 1       96       94       99      100      101      103      105
  grid # 2      354      336      352      365      376      382      387
  grid # 3       99      183      203      225      215      105       93
  grid # 4     4304     4304     4304     4304     4304     4304     4304
  grid # 5     1192     1192     1192     1192     1192     1192     1192
  grid # 6     5226     5226     5226     5226     5226     5226     5226
   
  number of gridpoints: 
     atom       C15      C16      C17      O18      C19      C20      C21
  grid # 1      101       95       95      118       96       96       95
  grid # 2      379      337      340      485      356      339      340
  grid # 3      101       59        9      706      182      165       23
  grid # 4     4304     4304     4304     4304     4304     4304     4304
  grid # 5     1192     1192     1192     1192     1192     1192     1192
  grid # 6     5226     5226     5226     5226     5226     5226     5226
   
  number of gridpoints: 
     atom       O22      C23      O24      C25      O26      C27      O28
  grid # 1      118       77      112       76      114       77      116
  grid # 2      457      265      424      260      423      257      445
  grid # 3      652        6      155        6      141        6      512
  grid # 4     4304     4304     4304     4304     4304     4304     4304
  grid # 5     1192     1192     1192     1192     1192     1192     1192
  grid # 6     5226     5226     5226     5226     5226     5226     5226
   
  number of gridpoints: 
     atom       C29      O30      H31      H32      H33      H34      H35
  grid # 1       77      111       98      105      111      110      102
  grid # 2      263      420      400      423      439      440      411
  grid # 3        6      598      415      621     1120     1025      542
  grid # 4     4304     4304     4304     4304     4304     4304     4304
  grid # 5     1192     1192     1192     1192     1192     1192     1192
  grid # 6     5226     5226     5226     5226     5226     5226     5226
   
  number of gridpoints: 
     atom       H36      H37      H38      H39      H40      H41      H42
  grid # 1       94       97      108      111      115      106      111
  grid # 2      389      395      430      424      448      424      447
  grid # 3      101      314      824      583     1102      610     1287
  grid # 4     4304     4304     4304     4304     4304     4304     4304
  grid # 5     1192     1192     1192     1192     1192     1192     1192
  grid # 6     5226     5226     5226     5226     5226     5226     5226
   
  number of gridpoints: 
     atom       H43      H44      H45      H46      H47      H48      H49
  grid # 1      107      110      111      109      108      113      110
  grid # 2      437      432      444      437      434      441      438
  grid # 3      934      862     1115      860      786     1093      940
  grid # 4     4304     4304     4304     4304     4304     4304     4304
  grid # 5     1192     1192     1192     1192     1192     1192     1192
  grid # 6     5226     5226     5226     5226     5226     5226     5226
   
  number of gridpoints: 
     atom       H50      H51      H52      H53      H54    total
  grid # 1      110      113      110      109      110     5503
  grid # 2      437      448      435      435      444    21016
  grid # 3      950     1297      922      924     1084    26046
  grid # 4     4304     4304     4304     4304     4304   232416
  grid # 5     1192     1192     1192     1192     1192    64368
  grid # 6     5226     5226     5226     5226     5226   282204
   
  Peak memory usage:   4784 Mb
  
  end of program grid
   
 Time(grid)  user:       35.8  user+sys:       35.8  wallclock:        3.2
  
  start of program rwr
  
  Peak memory usage:   4745 Mb
  
  end of program rwr
   
 Time(rwr)  user:       62.8  user+sys:       62.8  wallclock:        6.4
  
  start of program scf
  
 number of electrons..........        211
 number of alpha electrons....        106
 number of beta electrons.....        105
 number of alpha orbitals.....        311
 number of beta orbitals......        311
 number of alpha occupied orb..       106
 number of alpha virtual orb...       205
 number of beta occupied orb...       105
 number of beta virtual orb....       206
 SCF type: UDFT=Becke_3_Parameter/HF+Slater+Becke88+VWN+LYP (B3LYP)
 Energy computed with NOPS off.
  
       i  u  d  i  g                   
       t  p  i  c  r                                 RMS    maximum
       e  d  i  u  i                       energy  density   DIIS  
       r  t  s  t  d       total energy    change  change    error 
  
etot    1  N  N  5  M   -1353.85756116006           1.4E-02  1.2E-01
etot    2  Y  Y  6  M   -1346.41715571934 -7.4E+00  1.8E-02  4.7E-01
etot    3  Y  Y  6  M   -1348.05382502982  1.6E+00  1.6E-02  3.8E-01
etot    4  N  Y  2  U   -1352.48775784348  4.4E+00  1.4E-02  1.7E-01
etot    5  Y  Y  6  M   -1350.18062512817 -2.3E+00  9.5E-03  2.4E-01
etot    6  N  Y  2  U   -1357.64690852089  7.5E+00  4.8E-03  9.8E-02
etot    7  Y  Y  6  M   -1357.75695795828  1.1E-01  3.6E-03  7.7E-02
etot    8  N  Y  2  U   -1357.96608965844  2.1E-01  1.8E-03  2.9E-02
etot    9  Y  Y  6  M   -1358.12925595959  1.6E-01  9.9E-04  1.9E-02
etot   10  N  Y  2  U   -1358.14248058014  1.3E-02  4.6E-04  1.3E-02
etot   11  Y  Y  6  M   -1358.15000074576  7.5E-03  3.4E-04  2.1E-03
etot   12  N  Y  2  U   -1358.15045735828  4.6E-04  1.3E-04  3.0E-03
etot   13  Y  Y  6  M   -1358.15098112816  5.2E-04  4.3E-05  2.6E-03
etot   14  N  Y  2  U   -1358.15110979539  1.3E-04  8.2E-05  2.2E-03
etot   15  Y  Y  6  M   -1358.15140018048  2.9E-04  2.5E-04  1.7E-03
etot   16  Y  Y  6  M   -1358.15184002695  4.4E-04  1.3E-04  1.1E-03
etot   17  Y  Y  6  M   -1358.15200628603  1.7E-04  9.6E-05  8.1E-04
etot   18  Y  Y  6  M   -1358.15209066252  8.4E-05  4.8E-05  6.5E-04
etot   19  N  Y  2  U   -1358.15205681664 -3.4E-05  2.9E-05  4.4E-04
etot   20  N  Y  2  U   -1358.15207844404  2.2E-05  4.7E-05  4.1E-04
etot   21  N  Y  2  U   -1358.15211225915  3.4E-05  1.9E-05  3.0E-04
etot   22  N  Y  2  U   -1358.15212868765  1.6E-05  3.7E-05  3.2E-04
etot   23  N  Y  2  U   -1358.15215602495  2.7E-05  9.5E-06  3.0E-04
etot   24  N  Y  2  U   -1358.15215082222 -5.2E-06  8.8E-05  3.0E-04
etot   25  Y  Y  6  M   -1358.15207525212 -7.6E-05  5.2E-05  2.4E-04
etot   26  Y  Y  6  M   -1358.15204346181 -3.2E-05  1.1E-04  2.4E-04
etot   27  Y  Y  6  M   -1358.15200566587 -3.8E-05  8.3E-05  2.7E-04
etot   28  Y  Y  6  M   -1358.15201194613  6.3E-06  8.9E-05  1.5E-04
etot   29  N  Y  2  U   -1358.15201768739  5.7E-06  9.2E-05  3.5E-04
etot   30  Y  Y  6  M   -1358.15201048929 -7.2E-06  1.7E-05  1.5E-04
etot   31  N  Y  2  U   -1358.15200513306 -5.4E-06  1.4E-05  4.5E-05
etot   32  N  Y  2  U   -1358.15200621778  1.1E-06  8.9E-06  4.0E-05
etot   33  N  Y  2  U   -1358.15200635264  1.3E-07  4.6E-06  4.1E-05
etot   34  N  N  2  U   -1358.15200670452  3.5E-07  0.0E+00  0.0E+00
  
  
 Energy components, in hartrees:
   (A)  Nuclear repulsion............    2914.92906770046
   (E)  Total one-electron terms.....   -7621.05269421287
   (I)  Total two-electron terms.....    3347.97161980789
   (L)  Electronic energy............   -4273.08107440498  (E+I)
   (N)  Total energy.................   -1358.15200670452  (A+L)
   (O)  Gas phase energy.............   -1358.15200670452
  
                                 Total             Coulomb       Exchange+Corr.
 Total two-electron terms    3347.97161980789    3534.80570256586    -186.83408275797
   Hamiltonian  1........    1709.15274436824    1775.62030214388     -66.46755777563
   Hamiltonian  2........    1693.14551189416    1759.18540042199     -66.03988852783
  
 SCFE: SCF energy: UDFT(b3lyp)     -1358.15200670452 hartrees   iterations:  34
  
 
 Alpha HOMO energy:    -0.31729
 Alpha LUMO energy:    -0.25078
 
  Alpha Orbital energies (hartrees): 
   -19.31025   -19.31002   -19.30421   -19.29555   -19.28347   -19.26820
   -14.44853   -10.42087   -10.41944   -10.41459   -10.40879   -10.39753
   -10.38895   -10.38703   -10.37467   -10.36820   -10.36627   -10.35479
   -10.34924   -10.34774   -10.34722   -10.33414   -10.32686   -10.32615
   -10.32384   -10.30238   -10.29417   -10.29179   -10.29164    -1.22359
    -1.20383    -1.19879    -1.19161    -1.17896    -1.17416    -1.05323
    -1.00976    -0.99847    -0.96565    -0.95209    -0.92124    -0.90427
    -0.89063    -0.87292    -0.85304    -0.83896    -0.81826    -0.81188
    -0.79378    -0.76390    -0.75359    -0.73963    -0.72071    -0.70708
    -0.69235    -0.68207    -0.65985    -0.65224    -0.64885    -0.64008
    -0.63558    -0.62628    -0.61778    -0.61391    -0.61075    -0.60657
    -0.59810    -0.59222    -0.59068    -0.58540    -0.57313    -0.56849
    -0.56553    -0.56179    -0.55562    -0.55012    -0.54331    -0.53949
    -0.53924    -0.53081    -0.52807    -0.51601    -0.50836    -0.50326
    -0.49496    -0.49051    -0.48270    -0.47387    -0.47018    -0.46732
    -0.46394    -0.45546    -0.45036    -0.44728    -0.44001    -0.42616
    -0.41653    -0.41313    -0.39068    -0.38801    -0.37453    -0.36663
    -0.35598    -0.34842    -0.32733    -0.31729    -0.25078    -0.18376
    -0.17213    -0.15421    -0.13159    -0.11996    -0.11637    -0.09697
    -0.05895    -0.04707
 
 
 Beta HOMO energy:    -0.30191
 Beta LUMO energy:    -0.27645
 
  Beta Orbital energies (hartrees): 
   -19.31009   -19.30960   -19.30171   -19.29493   -19.28342   -19.26794
   -14.44594   -10.42127   -10.41726   -10.41467   -10.40901   -10.39555
   -10.38868   -10.38773   -10.37439   -10.36804   -10.36615   -10.35237
   -10.34920   -10.34771   -10.34356   -10.33421   -10.32552   -10.32436
   -10.32385   -10.30246   -10.29416   -10.29185   -10.29151    -1.22215
    -1.20044    -1.19826    -1.19140    -1.17663    -1.17359    -1.05057
    -1.00643    -0.99502    -0.96265    -0.94786    -0.91785    -0.90255
    -0.88893    -0.87139    -0.85215    -0.83830    -0.81728    -0.81064
    -0.79200    -0.76150    -0.75232    -0.73742    -0.71933    -0.70550
    -0.69129    -0.67968    -0.65882    -0.65140    -0.64617    -0.63854
    -0.63377    -0.62464    -0.61582    -0.61149    -0.60855    -0.60554
    -0.59639    -0.59078    -0.58669    -0.58395    -0.57196    -0.56609
    -0.56311    -0.56051    -0.55386    -0.54900    -0.54194    -0.53873
    -0.53819    -0.53003    -0.52618    -0.51418    -0.50604    -0.50085
    -0.49280    -0.48960    -0.48102    -0.47202    -0.46890    -0.46623
    -0.46283    -0.45396    -0.44833    -0.44123    -0.43717    -0.42412
    -0.41497    -0.40954    -0.38705    -0.38203    -0.36486    -0.36352
    -0.34768    -0.33916    -0.30191    -0.27645    -0.23866    -0.17805
    -0.16826    -0.14919    -0.12666    -0.11727    -0.11003    -0.09149
    -0.05827
 
  
  
    Unrestricted Spin Properties ...
    Sz*(Sz+1)      0.750
    <S**2> ...     0.769
  
  
  Peak memory usage:   6750 Mb
  
  end of program scf
   
 Time(scf)  user:      866.5  user+sys:      866.5  wallclock:       61.2
  
  start of program der1a
  
  Peak memory usage:   4838 Mb
  
  end of program der1a
   
 Time(der1a)  user:        3.0  user+sys:        3.0  wallclock:        0.5
  
  start of program rwr
  
  Peak memory usage:   4746 Mb
  
  end of program rwr
   
 Time(rwr)  user:       46.7  user+sys:       46.7  wallclock:        7.1
  
  start of program der1b
  
   
  forces (hartrees/bohr) : total     
   
 atom  label           x              y              z
 ---- --------   -------------  -------------  -------------
    1 C1         -6.688784E-03   1.920067E-02  -2.089011E-02
    2 C2         -7.220020E-03   7.598201E-03   4.129325E-03
    3 N3          1.781327E-02  -7.605162E-03  -8.364601E-03
    4 C4          1.708659E-02  -4.833963E-03  -1.201099E-02
    5 H5         -8.656126E-03   2.477147E-03   9.959455E-03
    6 C6          1.928081E-02   3.829124E-02  -4.252290E-02
    7 C7          5.699332E-04   1.840733E-02  -4.043902E-03
    8 C8         -2.066170E-02   5.928265E-02  -1.191585E-02
    9 C9         -1.759206E-02  -4.895859E-02  -1.851399E-02
   10 C10        -1.818863E-02  -2.635855E-03  -1.077060E-02
   11 C11         1.991365E-02  -3.156153E-02   3.853809E-03
   12 C12         7.956661E-03   2.831506E-02   9.307593E-03
   13 C13         6.006115E-03   1.504968E-02   1.477937E-03
   14 C14        -1.553244E-02   5.116804E-02  -3.911668E-02
   15 C15         1.071248E-02  -1.903667E-02  -1.595044E-02
   16 C16        -1.526950E-02   2.049210E-03   1.619503E-02
   17 C17        -1.723937E-02  -2.099581E-02   3.985270E-02
   18 O18         4.181138E-03  -1.859614E-02  -1.319919E-03
   19 C19         2.952376E-02  -1.019415E-02   1.001310E-02
   20 C20         2.722868E-02  -1.466155E-03   1.082713E-02
   21 C21        -3.175241E-02  -5.828252E-02   3.101093E-02
   22 O22         2.187681E-04   1.983056E-02   2.049537E-02
   23 C23        -1.329158E-02  -2.394118E-02  -1.067853E-02
   24 O24        -1.460344E-02   2.121910E-02  -7.799122E-03
   25 C25         2.660381E-02  -2.244230E-02   1.085832E-02
   26 O26        -1.103385E-02  -1.513364E-02  -5.648563E-03
   27 C27         3.565402E-02   1.026977E-02   1.931391E-02
   28 O28         2.431145E-03  -1.578720E-02   1.165210E-03
   29 C29         1.137520E-02   3.765887E-02   8.922125E-03
   30 O30        -4.132664E-03  -3.080661E-02  -2.319948E-03
   31 H31         6.472022E-04   2.308202E-02   5.665402E-03
   32 H32        -5.614217E-03   7.111904E-03  -6.547941E-03
   33 H33        -1.801762E-02  -4.509430E-03   1.462142E-02
   34 H34        -3.148753E-02   1.766207E-02  -1.260769E-02
   35 H35        -8.435245E-03  -6.177019E-03   4.209029E-03
   36 H36        -1.700892E-02  -5.609459E-03  -1.942901E-02
   37 H37        -1.164249E-02  -1.460688E-03   7.448264E-03
   38 H38         5.901787E-03  -3.569688E-03  -3.738062E-03
   39 H39         2.202418E-02   1.747886E-02  -3.378947E-03
   40 H40         6.972850E-03  -5.414993E-03  -4.130944E-03
   41 H41         2.461024E-02   1.244317E-02   3.729779E-02
   42 H42         3.354242E-03   8.238396E-04   1.535804E-03
   43 H43         4.415668E-03   3.901195E-03   5.330010E-03
   44 H44         3.333723E-03   2.216815E-03   1.830774E-03
   45 H45        -1.921774E-03  -2.435795E-03  -1.588730E-03
   46 H46        -8.640692E-04  -1.145775E-02  -6.403961E-04
   47 H47        -3.579886E-03  -1.295662E-02  -1.015818E-03
   48 H48        -7.162557E-03  -1.256048E-03  -3.622646E-03
   49 H49         1.983057E-03  -6.431312E-03   4.563545E-03
   50 H50         6.667117E-03  -6.347978E-03  -1.228788E-03
   51 H51        -7.742849E-03  -1.007275E-02  -4.257177E-03
   52 H52        -1.195506E-03  -3.094583E-03   5.172363E-03
   53 H53         4.664587E-03  -1.623769E-03  -3.712323E-03
   54 H54        -5.186473E-03  -2.256689E-04  -5.700785E-03
 -------------   -------------  -------------  -------------
     total       -5.910501E-04   6.163746E-04   1.590952E-03
   
  Peak memory usage:   6744 Mb
  
  end of program der1b
   
 Time(der1b)  user:       88.4  user+sys:       88.4  wallclock:        6.1
  
  start of program geopt
  
 ----------------------------------------------------------------------------
  Geometry optimization step  1
  Total energy:     -1358.15200670452 hartrees
 ----------------------------------------------------------------------------
  
  
  Level shifts adjusted to satisfy step-size constraints
   Step size:    0.3000792
   Cos(theta):   0.9879193
   Final level shift:  -1.4168832E+00
  
  gradient maximum:        1.8237E-01 .  (  4.5000E-04 )
  gradient rms:            4.3098E-02 .  (  3.0000E-04 )
  displacement maximum:    6.2417E-02 .  (  1.8000E-03 )
  displacement rms:        1.5992E-02 .  (  1.2000E-03 )
  
  predicted energy change:  -1.0936E-01
  step size:     0.21216
  trust radius:  0.30000
  
  molecular structure not yet converged...
  
  center of mass moved by:
     x:     2.1989E-02     y:     2.4751E-02     z:     3.1476E-03
  
  new geometry: 
                                   angstroms
  atom               x                 y                 z
  C1           -0.2369378509      3.9616177830      2.4290894238 
  C2            0.1833235278      2.5505814610      2.3905489801 
  N3            0.9272869317      2.0183048097      1.4887941514 
  C4            2.2281240271      2.4028051242      0.7306731631 
  H5            2.2586994131      1.8148451237     -0.2030613865 
  C6            2.9967503884      3.6750620882      0.5369155254 
  C7            2.5731591388      4.6058658525      1.5965623715 
  C8            3.6388706910      5.3350913209      2.2461002264 
  C9            3.3620390382      6.7405035801      2.3699427646 
  C10           4.2268872375      7.6334320450      2.9351731429 
  C11           5.3507190857      7.0284143288      3.4824103285 
  C12           5.5482018370      5.5109581595      3.4527537580 
  C13           4.6492149315      4.5430426552      2.7955465322 
  C14           4.4021449862      2.7670003418      2.6096307093 
  C15           3.2725236814      1.7545433140      1.6460683347 
  C16           2.8394985951      0.4470870738      1.8216152626 
  C17           2.9663280135      0.1164710487      3.2178403438 
  O18           2.1919375203      0.5157154531      4.1100517755 
  C19           4.3308334449     -0.3268706156      3.4212097579 
  C20           5.1115101375      0.7363386552      3.7134243300 
  C21           4.6461829353      2.1431121751      3.7929727544 
  O22           4.8095317233     -1.4899014733      2.8335281261 
  C23           3.8053124727     -2.3958157324      2.3138078682 
  O24           6.6962561080      5.2822227727      4.1586902108 
  C25           7.1305636367      3.9719681450      4.3810372249 
  O26           6.1712333735      7.9803315602      4.0397838251 
  C27           7.4242602347      7.7748444278      4.6524956475 
  O28           3.8318954833      8.9427801075      2.8508283225 
  C29           4.6808244832     10.0182910424      3.2752031500 
  O30          -0.4057823810      1.8233711283      3.3809707200 
  H31           0.0958120747      4.2925741335      1.4593326463 
  H32           0.1720575467      4.5049946592      3.2881839963 
  H33          -1.3029129148      4.1024970015      2.3383100720 
  H34           3.1257054957      4.0604707341     -0.4688874274 
  H35           4.0776679963      3.4792633658      0.6324819168 
  H36           2.2492025964      4.0800109904      2.5016135309 
  H37           1.8809441752      5.3057618472      1.1591159656 
  H38           2.4120661412      7.1222870457      1.9995057132 
  H39           1.9964737902     -0.0497166704      1.2850650677 
  H40           6.1845621205      0.6547226225      3.6148667642 
  H41           3.7796473974      2.4102290498      4.4280113817 
  H42           4.2077727677     -3.4049791993      2.4039946935 
  H43           3.5962108544     -2.2129772786      1.2484204690 
  H44           2.8626912982     -2.3665801358      2.8756200098 
  H45           8.0913933155      4.0531379525      4.8999923985 
  H46           7.2834704865      3.4751965726      3.4257207563 
  H47           6.4229556643      3.4663796062      5.0366110178 
  H48           7.8347748366      8.7661833617      4.8930557940 
  H49           8.1224436994      7.2939225389      3.9686452086 
  H50           7.2971432973      7.2429654923      5.5946994083 
  H51           4.1924116754     10.9726910723      3.0366481313 
  H52           5.6372116405     10.0144131719      2.7426514846 
  H53           4.8201971920     10.0006619015      4.3598789841 
  H54          -0.7025889256      2.3759262392      4.1315350110 
   
  nuclear repulsion energy.......    2884.129224039 hartrees
  -------------------------------------------------
 /  end of geometry optimization iteration   1   /
 -------------------------------------------------
   
  Peak memory usage:   4732 Mb
  
  end of program geopt
   
 Time(geopt)  user:        8.7  user+sys:        8.7  wallclock:        0.8
  
  start of program onee
  
  smallest eigenvalue of S:    7.161E-04
  number of canonical orbitals.....          311
  Peak memory usage:   4838 Mb
  
  end of program onee
   
 Time(onee)  user:        4.2  user+sys:        4.2  wallclock:        0.5
  
  start of program probe
  
  Peak memory usage:   4756 Mb
  
  end of program probe
   
 Time(probe)  user:        2.7  user+sys:        2.7  wallclock:        0.5
  
  start of program grid
  
   grid     grid set  grid #  grid sym
  ------    --------  ------  --------
  coarse        0        0        1
  medium        2        1        1
  fine          0        0        1
  ultrafine     4        2        1
  charge       -1        3        1
  gradient      4        2        1
  density       0        0        1
  DFT-fine    -11        4        1
  DFT-med.    -10        5        1
  DFT-grad    -12        6        1
  DFT-der2      0        0        1
  DFT-cphf      0        0        1
  LMP2-enrg     4        2        1
  LMP2-grad     2        1        1
  DFT-cphf2     0        0        1
  PBF-dens      0        0        1
  plotting      0        0        1
  Rel-grad    -17        0        1
  
  number of gridpoints: 
     atom        C1       C2       N3       C4       H5       C6       C7
  grid # 1       77       97      109       91      111       86       79
  grid # 2      259      346      421      317      436      288      282
  grid # 3        6       72      270       20      903        8        6
  grid # 4     4304     4304     4304     4304     4304     4304     4304
  grid # 5     1192     1192     1192     1192     1192     1192     1192
  grid # 6     5226     5226     5226     5226     5226     5226     5226
   
  number of gridpoints: 
     atom        C8       C9      C10      C11      C12      C13      C14
  grid # 1       98       97       98      100      101      102      105
  grid # 2      354      336      354      366      375      379      386
  grid # 3       91      199      207      219      212       99       77
  grid # 4     4304     4304     4304     4304     4304     4304     4304
  grid # 5     1192     1192     1192     1192     1192     1192     1192
  grid # 6     5226     5226     5226     5226     5226     5226     5226
   
  number of gridpoints: 
     atom       C15      C16      C17      O18      C19      C20      C21
  grid # 1      102       94       95      122       97       97       93
  grid # 2      379      338      344      493      358      341      331
  grid # 3       98       59       10      834      176      161       11
  grid # 4     4304     4304     4304     4304     4304     4304     4304
  grid # 5     1192     1192     1192     1192     1192     1192     1192
  grid # 6     5226     5226     5226     5226     5226     5226     5226
   
  number of gridpoints: 
     atom       O22      C23      O24      C25      O26      C27      O28
  grid # 1      118       78      111       76      115       77      117
  grid # 2      456      264      429      262      425      259      448
  grid # 3      636        6      156        6      154        6      509
  grid # 4     4304     4304     4304     4304     4304     4304     4304
  grid # 5     1192     1192     1192     1192     1192     1192     1192
  grid # 6     5226     5226     5226     5226     5226     5226     5226
   
  number of gridpoints: 
     atom       C29      O30      H31      H32      H33      H34      H35
  grid # 1       78      113      103      109      111      110      101
  grid # 2      264      424      411      430      439      440      412
  grid # 3        6      616      511      756     1130     1032      523
  grid # 4     4304     4304     4304     4304     4304     4304     4304
  grid # 5     1192     1192     1192     1192     1192     1192     1192
  grid # 6     5226     5226     5226     5226     5226     5226     5226
   
  number of gridpoints: 
     atom       H36      H37      H38      H39      H40      H41      H42
  grid # 1      102      102      109      112      116      109      112
  grid # 2      398      407      436      429      446      434      447
  grid # 3      175      377      880      620     1042      681     1286
  grid # 4     4304     4304     4304     4304     4304     4304     4304
  grid # 5     1192     1192     1192     1192     1192     1192     1192
  grid # 6     5226     5226     5226     5226     5226     5226     5226
   
  number of gridpoints: 
     atom       H43      H44      H45      H46      H47      H48      H49
  grid # 1      108      110      110      110      106      112      110
  grid # 2      437      432      444      435      429      443      439
  grid # 3      947      880     1109      776      705     1100      940
  grid # 4     4304     4304     4304     4304     4304     4304     4304
  grid # 5     1192     1192     1192     1192     1192     1192     1192
  grid # 6     5226     5226     5226     5226     5226     5226     5226
   
  number of gridpoints: 
     atom       H50      H51      H52      H53      H54    total
  grid # 1      110      113      110      109      110     5548
  grid # 2      438      448      437      435      444    21104
  grid # 3      948     1298      934      935     1103    26521
  grid # 4     4304     4304     4304     4304     4304   232416
  grid # 5     1192     1192     1192     1192     1192    64368
  grid # 6     5226     5226     5226     5226     5226   282204
   
  Peak memory usage:   4784 Mb
  
  end of program grid
   
 Time(grid)  user:       36.5  user+sys:       36.5  wallclock:        3.2
  
  start of program rwr
  
  Peak memory usage:   4745 Mb
  
  end of program rwr
   
 Time(rwr)  user:       59.9  user+sys:       59.9  wallclock:        6.3
  
  start of program scf
  
 Energy computed with NOPS off.
  
       i  u  d  i  g                   
       t  p  i  c  r                                 RMS    maximum
       e  d  i  u  i                       energy  density   DIIS  
       r  t  s  t  d       total energy    change  change    error 
  
etot    1  N  N  2  U   -1358.18740060408           1.1E-03  1.0E-02
etot    2  Y  Y  6  M   -1358.24470838286  5.7E-02  4.3E-04  2.3E-03
etot    3  N  Y  2  U   -1358.24323701115 -1.5E-03  3.3E-04  5.2E-03
etot    4  Y  Y  6  M   -1358.24683733988  3.6E-03  1.8E-04  2.2E-03
etot    5  Y  Y  6  M   -1358.24700423675  1.7E-04  1.2E-04  2.3E-03
etot    6  N  Y  2  U   -1358.24716628164  1.6E-04  4.0E-05  8.7E-04
etot    7  N  Y  2  U   -1358.24721642267  5.0E-05  1.3E-05  2.1E-04
etot    8  N  Y  2  U   -1358.24722195509  5.5E-06  9.9E-06  1.4E-04
etot    9  N  Y  2  U   -1358.24722643801  4.5E-06  9.6E-06  1.3E-04
etot   10  N  Y  2  U   -1358.24723074921  4.3E-06  3.2E-06  1.3E-04
etot   11  N  N  2  U   -1358.24723225775  1.5E-06  0.0E+00  0.0E+00
  
  
 Energy components, in hartrees:
   (A)  Nuclear repulsion............    2884.12922403864
   (E)  Total one-electron terms.....   -7560.08253532276
   (I)  Total two-electron terms.....    3317.70607902637
   (L)  Electronic energy............   -4242.37645629639  (E+I)
   (N)  Total energy.................   -1358.24723225775  (A+L)
   (O)  Gas phase energy.............   -1358.24723225775
  
                                 Total             Coulomb       Exchange+Corr.
 Total two-electron terms    3317.70607902637    3504.42996355346    -186.72388452709
   Hamiltonian  1........    1693.96684360868    1760.39531027779     -66.42846666911
   Hamiltonian  2........    1678.03589064789    1744.03465327567     -65.99876262777
  
 SCFE: SCF energy: UDFT(b3lyp)     -1358.24723225775 hartrees   iterations:  11
  
 
 Alpha HOMO energy:    -0.31863
 Alpha LUMO energy:    -0.24311
 
  Alpha Orbital energies (hartrees): 
   -19.30894   -19.30695   -19.30462   -19.29598   -19.28303   -19.26977
   -14.44685   -10.41644   -10.41506   -10.41289   -10.40967   -10.39821
   -10.38586   -10.38504   -10.37796   -10.36885   -10.36410   -10.35390
   -10.35029   -10.34601   -10.34409   -10.33477   -10.32786   -10.32512
   -10.32294   -10.30229   -10.29478   -10.29361   -10.29334    -1.21941
    -1.19989    -1.19510    -1.18937    -1.17755    -1.17326    -1.04086
    -1.00436    -0.99144    -0.95818    -0.94310    -0.91342    -0.90003
    -0.88819    -0.86632    -0.85091    -0.83772    -0.81597    -0.81066
    -0.79109    -0.76468    -0.75002    -0.73786    -0.71929    -0.70414
    -0.69152    -0.67699    -0.65716    -0.65001    -0.64676    -0.63679
    -0.63173    -0.62189    -0.61609    -0.61023    -0.60820    -0.60273
    -0.59424    -0.58865    -0.58421    -0.57851    -0.57257    -0.56521
    -0.56486    -0.56023    -0.55338    -0.54638    -0.54098    -0.53943
    -0.53576    -0.53087    -0.52589    -0.51634    -0.50904    -0.50344
    -0.49942    -0.48877    -0.48249    -0.47324    -0.47031    -0.46692
    -0.46250    -0.45512    -0.44829    -0.44688    -0.43999    -0.43271
    -0.41765    -0.41346    -0.39314    -0.38704    -0.37013    -0.36698
    -0.35538    -0.34626    -0.32700    -0.31863    -0.24311    -0.17664
    -0.16964    -0.14692    -0.12846    -0.11732    -0.11294    -0.09688
    -0.05448    -0.04342
 
 
 Beta HOMO energy:    -0.30325
 Beta LUMO energy:    -0.27558
 
  Beta Orbital energies (hartrees): 
   -19.30855   -19.30678   -19.30198   -19.29522   -19.28299   -19.26969
   -14.44422   -10.41691   -10.41521   -10.41108   -10.40985   -10.39614
   -10.38564   -10.38563   -10.37760   -10.36872   -10.36392   -10.35115
   -10.35020   -10.34599   -10.34059   -10.33485   -10.32642   -10.32513
   -10.32127   -10.30243   -10.29471   -10.29346   -10.29339    -1.21785
    -1.19644    -1.19465    -1.18917    -1.17485    -1.17295    -1.03799
    -1.00141    -0.98740    -0.95583    -0.93833    -0.90992    -0.89832
    -0.88628    -0.86492    -0.84997    -0.83702    -0.81491    -0.80978
    -0.78921    -0.76224    -0.74867    -0.73568    -0.71780    -0.70242
    -0.69040    -0.67493    -0.65608    -0.64901    -0.64437    -0.63535
    -0.62983    -0.62005    -0.61426    -0.60804    -0.60592    -0.60172
    -0.59256    -0.58411    -0.58285    -0.57774    -0.57117    -0.56329
    -0.56215    -0.55925    -0.55157    -0.54476    -0.53982    -0.53812
    -0.53510    -0.53000    -0.52429    -0.51468    -0.50708    -0.50128
    -0.49667    -0.48816    -0.48127    -0.47135    -0.46883    -0.46584
    -0.46145    -0.45369    -0.44592    -0.44091    -0.43703    -0.43134
    -0.41600    -0.40914    -0.38694    -0.38338    -0.36579    -0.35941
    -0.34703    -0.33575    -0.30325    -0.27558    -0.23041    -0.17271
    -0.16542    -0.14270    -0.12334    -0.11272    -0.10805    -0.09173
    -0.05395
 
  
  
    Unrestricted Spin Properties ...
    Sz*(Sz+1)      0.750
    <S**2> ...     0.769
  
  
  Peak memory usage:   6751 Mb
  
  end of program scf
   
 Time(scf)  user:      348.2  user+sys:      348.2  wallclock:       24.6
  
  start of program der1a
  
  Peak memory usage:   4838 Mb
  
  end of program der1a
   
 Time(der1a)  user:        2.2  user+sys:        2.2  wallclock:        0.5
  
  start of program rwr
  
  Peak memory usage:   4746 Mb
  
  end of program rwr
   
 Time(rwr)  user:       46.4  user+sys:       46.4  wallclock:        6.9
  
  start of program der1b
  
   
  forces (hartrees/bohr) : total     
   
 atom  label           x              y              z
 ---- --------   -------------  -------------  -------------
    1 C1          5.433690E-03   1.641749E-02  -2.002079E-02
    2 C2          2.827388E-04   8.134933E-03  -3.913586E-03
    3 N3          1.936821E-02   4.963048E-04  -4.255625E-03
    4 C4          2.269635E-02  -2.254347E-02  -2.976771E-03
    5 H5         -1.162454E-02   2.605544E-03   5.857260E-03
    6 C6          1.258872E-02   2.613894E-02  -3.699637E-02
    7 C7         -8.933858E-03   1.693796E-02   2.011284E-03
    8 C8         -2.050336E-02   4.907288E-02  -1.069169E-02
    9 C9         -1.247720E-02  -4.106885E-02  -1.483537E-02
   10 C10        -1.577176E-02  -3.775197E-03  -9.499172E-03
   11 C11         1.694856E-02  -2.964812E-02   3.393641E-03
   12 C12         8.350584E-03   2.024539E-02   8.481990E-03
   13 C13         1.325305E-03   1.079029E-02   5.607010E-04
   14 C14        -1.696312E-02   4.325972E-02  -2.368265E-02
   15 C15         8.990627E-03  -1.113961E-02  -8.707992E-03
   16 C16        -1.447717E-02   1.816107E-02   1.699187E-02
   17 C17        -1.054382E-02  -2.010097E-02   3.009577E-02
   18 O18         4.196944E-04  -1.377692E-02  -4.873375E-03
   19 C19         2.622457E-02  -8.019565E-03   4.777442E-03
   20 C20         2.115669E-02   5.923787E-04   9.947147E-03
   21 C21        -2.835939E-02  -4.512084E-02   1.800764E-02
   22 O22        -1.703489E-03   1.750114E-02   1.815304E-02
   23 C23        -1.078839E-02  -2.184210E-02  -8.430742E-03
   24 O24        -9.555392E-03   1.608543E-02  -4.490123E-03
   25 C25         2.285340E-02  -1.765391E-02   7.498410E-03
   26 O26        -1.392844E-02  -1.121732E-02  -6.998203E-03
   27 C27         3.195579E-02   7.052022E-03   1.720292E-02
   28 O28         2.125562E-03  -1.541395E-02   1.218892E-03
   29 C29         1.183756E-02   3.171711E-02   8.377303E-03
   30 O30         2.896528E-03  -2.908053E-02  -1.127638E-03
   31 H31         6.889243E-03   2.428248E-02   1.087249E-03
   32 H32        -2.027049E-03   4.959459E-03  -5.377890E-03
   33 H33        -1.432851E-02  -6.064748E-03   1.186996E-02
   34 H34        -3.091343E-02   1.476898E-02  -1.092204E-02
   35 H35        -8.137374E-03  -8.114164E-03   4.508422E-03
   36 H36        -2.485917E-02  -6.835046E-03  -1.375201E-02
   37 H37        -1.631906E-02   3.945379E-04   8.252380E-03
   38 H38         5.614148E-03  -2.511119E-03  -3.576137E-03
   39 H39         1.708123E-02   1.879702E-02  -2.393787E-03
   40 H40         5.712340E-03  -3.719224E-03  -3.728568E-03
   41 H41         2.829489E-02   9.928610E-03   2.922321E-02
   42 H42         3.003828E-03   1.093239E-03   1.078878E-03
   43 H43         3.718778E-03   3.968650E-03   4.458160E-03
   44 H44         2.893785E-03   2.583895E-03   1.451230E-03
   45 H45        -1.883631E-03  -1.054913E-03  -1.348252E-03
   46 H46        -1.605237E-03  -8.888147E-03  -4.626704E-04
   47 H47        -4.424821E-03  -1.050643E-02  -1.349593E-03
   48 H48        -6.970456E-03  -6.787521E-04  -3.542780E-03
   49 H49         7.951872E-04  -5.676707E-03   3.652194E-03
   50 H50         4.939874E-03  -5.780267E-03  -1.584464E-03
   51 H51        -6.998680E-03  -9.122465E-03  -3.714084E-03
   52 H52        -9.296985E-04  -3.201792E-03   4.321117E-03
   53 H53         4.030567E-03  -2.087701E-03  -2.996545E-03
   54 H54        -4.545130E-03  -5.389694E-04  -5.042371E-03
 -------------   -------------  -------------  -------------
     total       -1.143710E-03   8.036753E-04   1.186826E-03
   
  Peak memory usage:   6744 Mb
  
  end of program der1b
   
 Time(der1b)  user:       85.7  user+sys:       85.7  wallclock:        5.9
  
  start of program geopt
  
 ----------------------------------------------------------------------------
  Geometry optimization step  2
  Total energy:     -1358.24723225775 hartrees
 ----------------------------------------------------------------------------
  
  
  Level shifts adjusted to satisfy step-size constraints
   Step size:    0.3002124
   Cos(theta):   0.9759456
   Final level shift:  -1.0314287E+00
  
  energy change:          -9.5226E-02 .  (  5.0000E-05 )
  gradient maximum:        1.0749E-01 .  (  4.5000E-04 )
  gradient rms:            2.8810E-02 .  (  3.0000E-04 )
  displacement maximum:    7.4602E-02 .  (  1.8000E-03 )
  displacement rms:        2.2622E-02 .  (  1.2000E-03 )
  
  predicted energy change:  -1.0246E-01
  step size:     0.30011
  trust radius:  0.30000
  
  molecular structure not yet converged...
  
  center of mass moved by:
     x:    -3.8430E-03     y:     2.4142E-02     z:     7.9302E-03
  
  new geometry: 
                                   angstroms
  atom               x                 y                 z
  C1           -0.3062474901      4.0478700756      2.3340391594 
  C2            0.1061394770      2.6169621614      2.3260866036 
  N3            0.8627813843      2.0701303785      1.4506315503 
  C4            2.1506483905      2.4358827718      0.7013305468 
  H5            2.1795410848      1.8190295307     -0.2104297588 
  C6            2.8832066250      3.7417991165      0.4928515047 
  C7            2.4059857515      4.6833679984      1.5387339943 
  C8            3.4983933967      5.4071457258      2.1972175466 
  C9            3.2925660772      6.8069491952      2.3349595628 
  C10           4.2228105124      7.6402180585      2.9227925551 
  C11           5.3267908966      6.9713882102      3.4716592490 
  C12           5.4420871349      5.4722909835      3.4217560151 
  C13           4.4981190978      4.5799896400      2.7557470837 
  C14           4.2614939648      2.8269877962      2.6138944466 
  C15           3.1664254077      1.7789228110      1.6801207830 
  C16           2.8604005868      0.4442609386      1.9278252140 
  C17           3.1112566127      0.1085249201      3.3285685579 
  O18           2.3654659321      0.4218960487      4.2737284708 
  C19           4.5272610606     -0.2438207579      3.4671663111 
  C20           5.2540441449      0.8668901697      3.7061811533 
  C21           4.6578080605      2.2201556299      3.7949012616 
  O22           5.0795196703     -1.3748585722      2.8930469923 
  C23           4.1552395792     -2.4016369382      2.4420093017 
  O24           6.5713763891      5.1243228721      4.1162548200 
  C25           6.9134600193      3.7623166457      4.2890026009 
  O26           6.2203423184      7.8391748351      4.0551091251 
  C27           7.4692080389      7.5293381961      4.6665394549 
  O28           3.9143710006      8.9729955971      2.8702693650 
  C29           4.8175203714     10.0081263184      3.3108538646 
  O30          -0.5025507912      1.8453797817      3.2774253190 
  H31           0.0407383776      4.3970975690      1.3703742945 
  H32           0.0867190645      4.6096876859      3.1875846142 
  H33          -1.3774517302      4.1839627034      2.2368373175 
  H34           2.9730358321      4.1208424679     -0.5248424214 
  H35           3.9648063959      3.5620983253      0.5818083659 
  H36           2.0644525300      4.1486539934      2.4327404395 
  H37           1.6926592848      5.3624572962      1.0933832050 
  H38           2.3656063348      7.2368181975      1.9647579757 
  H39           2.0859169889     -0.1383461616      1.3925631668 
  H40           6.3252938873      0.8454624717      3.5465178404 
  H41           3.9240262969      2.5032227704      4.5717072238 
  H42           4.6718428931     -3.3562202909      2.5448031594 
  H43           3.8896681215     -2.2675765729      1.3839026492 
  H44           3.2414064265     -2.4486442586      3.0470988453 
  H45           7.8745229627      3.7521941815      4.8116373987 
  H46           7.0308524902      3.2814904506      3.3186432453 
  H47           6.1663689822      3.2699986780      4.9151629562 
  H48           7.9357351998      8.4885176913      4.9264993996 
  H49           8.1332942622      7.0110157100      3.9756048759 
  H50           7.3140206475      6.9743361360      5.5914303629 
  H51           4.3564227549     10.9757673240      3.0796834147 
  H52           5.7727627197      9.9630415939      2.7805765359 
  H53           4.9646681712      9.9644473547      4.3927419767 
  H54          -0.8443138020      2.3698418439      4.0275796477 
   
  nuclear repulsion energy.......    2878.025532404 hartrees
  -------------------------------------------------
 /  end of geometry optimization iteration   2   /
 -------------------------------------------------
   
  Peak memory usage:   4733 Mb
  
  end of program geopt
   
 Time(geopt)  user:        9.4  user+sys:        9.4  wallclock:        0.8
  
  start of program onee
  
  smallest eigenvalue of S:    6.678E-04
  number of canonical orbitals.....          311
  Peak memory usage:   4838 Mb
  
  end of program onee
   
 Time(onee)  user:        2.2  user+sys:        2.2  wallclock:        0.5
  
  start of program probe
  
  Peak memory usage:   4756 Mb
  
  end of program probe
   
 Time(probe)  user:        2.6  user+sys:        2.6  wallclock:        0.5
  
  start of program grid
  
   grid     grid set  grid #  grid sym
  ------    --------  ------  --------
  coarse        0        0        1
  medium        2        1        1
  fine          0        0        1
  ultrafine     4        2        1
  charge       -1        3        1
  gradient      4        2        1
  density       0        0        1
  DFT-fine    -11        4        1
  DFT-med.    -10        5        1
  DFT-grad    -12        6        1
  DFT-der2      0        0        1
  DFT-cphf      0        0        1
  LMP2-enrg     4        2        1
  LMP2-grad     2        1        1
  DFT-cphf2     0        0        1
  PBF-dens      0        0        1
  plotting      0        0        1
  Rel-grad    -17        0        1
  
  number of gridpoints: 
     atom        C1       C2       N3       C4       H5       C6       C7
  grid # 1       78       97      109       92      111       85       81
  grid # 2      258      348      426      321      437      291      286
  grid # 3        6       75      284       19      918        6        6
  grid # 4     4304     4304     4304     4304     4304     4304     4304
  grid # 5     1192     1192     1192     1192     1192     1192     1192
  grid # 6     5226     5226     5226     5226     5226     5226     5226
   
  number of gridpoints: 
     atom        C8       C9      C10      C11      C12      C13      C14
  grid # 1       97       97       96      100      100      101      104
  grid # 2      361      336      356      361      372      371      383
  grid # 3      101      200      208      217      206       94       61
  grid # 4     4304     4304     4304     4304     4304     4304     4304
  grid # 5     1192     1192     1192     1192     1192     1192     1192
  grid # 6     5226     5226     5226     5226     5226     5226     5226
   
  number of gridpoints: 
     atom       C15      C16      C17      O18      C19      C20      C21
  grid # 1      101       93       95      122       98       96       93
  grid # 2      380      344      353      496      358      341      325
  grid # 3       97       63       11      962      169      150        6
  grid # 4     4304     4304     4304     4304     4304     4304     4304
  grid # 5     1192     1192     1192     1192     1192     1192     1192
  grid # 6     5226     5226     5226     5226     5226     5226     5226
   
  number of gridpoints: 
     atom       O22      C23      O24      C25      O26      C27      O28
  grid # 1      116       78      110       76      115       76      117
  grid # 2      458      265      425      261      430      261      447
  grid # 3      620        6      157        6      171        6      511
  grid # 4     4304     4304     4304     4304     4304     4304     4304
  grid # 5     1192     1192     1192     1192     1192     1192     1192
  grid # 6     5226     5226     5226     5226     5226     5226     5226
   
  number of gridpoints: 
     atom       C29      O30      H31      H32      H33      H34      H35
  grid # 1       78      113      102      108      111      110      101
  grid # 2      264      421      408      429      439      440      412
  grid # 3        6      666      502      759     1134     1030      546
  grid # 4     4304     4304     4304     4304     4304     4304     4304
  grid # 5     1192     1192     1192     1192     1192     1192     1192
  grid # 6     5226     5226     5226     5226     5226     5226     5226
   
  number of gridpoints: 
     atom       H36      H37      H38      H39      H40      H41      H42
  grid # 1       97      102      113      112      113      110      112
  grid # 2      398      408      437      435      440      433      448
  grid # 3      187      401      919      702      927      716     1286
  grid # 4     4304     4304     4304     4304     4304     4304     4304
  grid # 5     1192     1192     1192     1192     1192     1192     1192
  grid # 6     5226     5226     5226     5226     5226     5226     5226
   
  number of gridpoints: 
     atom       H43      H44      H45      H46      H47      H48      H49
  grid # 1      108      110      110      107      106      111      110
  grid # 2      437      434      444      428      419      443      436
  grid # 3      974      907     1090      668      563     1113      938
  grid # 4     4304     4304     4304     4304     4304     4304     4304
  grid # 5     1192     1192     1192     1192     1192     1192     1192
  grid # 6     5226     5226     5226     5226     5226     5226     5226
   
  number of gridpoints: 
     atom       H50      H51      H52      H53      H54    total
  grid # 1      110      113      110      110      112     5533
  grid # 2      436      448      437      436      447    21108
  grid # 3      951     1298      943      947     1137    26646
  grid # 4     4304     4304     4304     4304     4304   232416
  grid # 5     1192     1192     1192     1192     1192    64368
  grid # 6     5226     5226     5226     5226     5226   282204
   
  Peak memory usage:   4784 Mb
  
  end of program grid
   
 Time(grid)  user:       37.6  user+sys:       37.6  wallclock:        2.9
  
  start of program rwr
  
  Peak memory usage:   4745 Mb
  
  end of program rwr
   
 Time(rwr)  user:       59.8  user+sys:       59.8  wallclock:        6.1
  
  start of program scf
  
 Energy computed with NOPS off.
  
       i  u  d  i  g                   
       t  p  i  c  r                                 RMS    maximum
       e  d  i  u  i                       energy  density   DIIS  
       r  t  s  t  d       total energy    change  change    error 
  
etot    1  N  N  2  U   -1358.28139979144           1.1E-03  1.3E-02
etot    2  Y  Y  6  M   -1358.33462217859  5.3E-02  5.5E-04  2.5E-03
etot    3  N  Y  2  U   -1358.33155814723 -3.1E-03  5.5E-04  9.6E-03
etot    4  Y  Y  6  M   -1358.33608612057  4.5E-03  2.5E-04  7.4E-03
etot    5  Y  Y  6  M   -1358.33762380494  1.5E-03  7.0E-05  1.8E-03
etot    6  N  Y  2  U   -1358.33770144901  7.8E-05  3.4E-05  6.8E-04
etot    7  N  Y  2  U   -1358.33774836771  4.7E-05  2.3E-05  3.8E-04
etot    8  N  Y  2  U   -1358.33776798088  2.0E-05  2.0E-05  3.4E-04
etot    9  N  Y  2  U   -1358.33778659836  1.9E-05  3.3E-05  3.8E-04
etot   10  N  Y  2  U   -1358.33781528735  2.9E-05  3.7E-05  3.3E-04
etot   11  N  Y  2  U   -1358.33784650481  3.1E-05  7.1E-05  3.5E-04
etot   12  Y  Y  6  M   -1358.33789947469  5.3E-05  1.6E-04  2.6E-04
etot   13  Y  Y  6  M   -1358.33798984002  9.0E-05  2.1E-05  2.4E-04
etot   14  N  Y  2  U   -1358.33800568688  1.6E-05  1.9E-05  1.7E-04
etot   15  N  Y  2  U   -1358.33800278306 -2.9E-06  1.1E-04  2.2E-04
etot   16  Y  Y  6  M   -1358.33803326072  3.0E-05  5.0E-05  1.4E-04
etot   17  N  Y  2  U   -1358.33803376672  5.1E-07  4.4E-05  2.3E-04
etot   18  N  Y  2  U   -1358.33803607117  2.3E-06  4.9E-05  4.3E-05
etot   19  N  Y  2  U   -1358.33803560474 -4.7E-07  1.7E-05  1.7E-04
etot   20  N  Y  2  U   -1358.33803783442  2.2E-06  8.1E-06  6.4E-05
etot   21  N  Y  2  U   -1358.33803788633  5.2E-08  8.5E-06  6.6E-05
etot   22  N  Y  2  U   -1358.33803836438  4.8E-07  1.5E-06  7.6E-06
etot   23  N  N  2  U   -1358.33803837612  1.2E-08  0.0E+00  0.0E+00
  
  
 Energy components, in hartrees:
   (A)  Nuclear repulsion............    2878.02553240379
   (E)  Total one-electron terms.....   -7548.21341359087
   (I)  Total two-electron terms.....    3311.84984281096
   (L)  Electronic energy............   -4236.36357077991  (E+I)
   (N)  Total energy.................   -1358.33803837612  (A+L)
   (O)  Gas phase energy.............   -1358.33803837612
  
                                 Total             Coulomb       Exchange+Corr.
 Total two-electron terms    3311.84984281096    3498.51085742827    -186.66101461731
   Hamiltonian  1........    1691.02570794734    1757.43241307455     -66.40670512722
   Hamiltonian  2........    1675.10279455454    1741.07844435371     -65.97564979917
  
 SCFE: SCF energy: UDFT(b3lyp)     -1358.33803837612 hartrees   iterations:  23
  
 
 Alpha HOMO energy:    -0.32183
 Alpha LUMO energy:    -0.23590
 
  Alpha Orbital energies (hartrees): 
   -19.30787   -19.30589   -19.30280   -19.30130   -19.28041   -19.27191
   -14.44062   -10.41197   -10.41095   -10.41045   -10.40641   -10.40004
   -10.38750   -10.38332   -10.38145   -10.36684   -10.36522   -10.35725
   -10.35463   -10.34378   -10.34371   -10.33753   -10.33171   -10.33037
   -10.31808   -10.30483   -10.29618   -10.29596   -10.29436    -1.21456
    -1.19723    -1.19072    -1.18393    -1.17931    -1.17321    -1.03587
    -1.00098    -0.98519    -0.95061    -0.93472    -0.90639    -0.89739
    -0.88741    -0.86388    -0.84973    -0.83380    -0.81452    -0.81245
    -0.78965    -0.76752    -0.74999    -0.74110    -0.71851    -0.70398
    -0.68981    -0.67259    -0.65775    -0.65051    -0.64812    -0.63695
    -0.62781    -0.61985    -0.61552    -0.60726    -0.60607    -0.59991
    -0.59179    -0.58789    -0.58124    -0.57505    -0.57364    -0.56674
    -0.56446    -0.56084    -0.55408    -0.54725    -0.54125    -0.53772
    -0.53503    -0.53075    -0.52371    -0.51831    -0.51283    -0.50452
    -0.49846    -0.48779    -0.48333    -0.47497    -0.46972    -0.46774
    -0.46105    -0.45631    -0.45173    -0.45027    -0.44205    -0.43393
    -0.42126    -0.41543    -0.39982    -0.38213    -0.36836    -0.36462
    -0.35344    -0.34496    -0.33020    -0.32183    -0.23590    -0.17212
    -0.16110    -0.13420    -0.12507    -0.11740    -0.10304    -0.09686
    -0.04994    -0.04489
 
 
 Beta HOMO energy:    -0.30869
 Beta LUMO energy:    -0.27720
 
  Beta Orbital energies (hartrees): 
   -19.30809   -19.30317   -19.30144   -19.30122   -19.28037   -19.27195
   -14.43835   -10.41203   -10.41154   -10.41112   -10.40802   -10.39800
   -10.38676   -10.38275   -10.38106   -10.36672   -10.36419   -10.35414
   -10.35053   -10.34369   -10.34137   -10.33761   -10.33039   -10.33023
   -10.31709   -10.30522   -10.29621   -10.29592   -10.29423    -1.21353
    -1.19428    -1.19045    -1.18374    -1.17538    -1.17313    -1.03316
    -0.99817    -0.97979    -0.94811    -0.92947    -0.90371    -0.89490
    -0.88540    -0.86260    -0.84863    -0.83268    -0.81372    -0.81170
    -0.78772    -0.76566    -0.74843    -0.73839    -0.71661    -0.70185
    -0.68863    -0.67084    -0.65666    -0.64921    -0.64601    -0.63523
    -0.62574    -0.61829    -0.61372    -0.60541    -0.60432    -0.59864
    -0.59034    -0.58310    -0.58007    -0.57409    -0.57279    -0.56312
    -0.56257    -0.55980    -0.55185    -0.54543    -0.54022    -0.53600
    -0.53379    -0.52969    -0.52238    -0.51680    -0.51081    -0.50267
    -0.49596    -0.48686    -0.48254    -0.47305    -0.46857    -0.46692
    -0.46004    -0.45519    -0.44993    -0.44342    -0.43961    -0.43301
    -0.41951    -0.41026    -0.39416    -0.37909    -0.36705    -0.35540
    -0.34695    -0.33270    -0.30869    -0.27720    -0.21568    -0.17124
    -0.15757    -0.13202    -0.12108    -0.11074    -0.10099    -0.09334
    -0.04953
 
  
  
    Unrestricted Spin Properties ...
    Sz*(Sz+1)      0.750
    <S**2> ...     0.828
  
  
  Peak memory usage:   6751 Mb
  
  end of program scf
   
 Time(scf)  user:      721.7  user+sys:      721.7  wallclock:       50.0
  
  start of program der1a
  
  Peak memory usage:   4838 Mb
  
  end of program der1a
   
 Time(der1a)  user:        2.3  user+sys:        2.3  wallclock:        0.5
  
  start of program rwr
  
  Peak memory usage:   4745 Mb
  
  end of program rwr
   
 Time(rwr)  user:       45.2  user+sys:       45.2  wallclock:        6.7
  
  start of program der1b
  
   
  forces (hartrees/bohr) : total     
   
 atom  label           x              y              z
 ---- --------   -------------  -------------  -------------
    1 C1         -2.259787E-03   7.430534E-03  -1.555900E-02
    2 C2         -6.478226E-04   8.585999E-03  -8.952157E-03
    3 N3          1.957175E-02   3.924545E-04  -6.829310E-03
    4 C4          2.277681E-02  -3.372829E-02   1.003731E-02
    5 H5         -8.407481E-03   3.574851E-03   3.138182E-03
    6 C6          3.978231E-03   1.305728E-02  -3.418549E-02
    7 C7          8.294339E-03   1.593862E-02   6.263732E-03
    8 C8         -2.177785E-02   3.436665E-02  -1.038330E-02
    9 C9         -5.829826E-03  -3.154534E-02  -1.054141E-02
   10 C10        -1.143943E-02  -2.323695E-03  -6.446000E-03
   11 C11         1.372275E-02  -2.838295E-02   2.962697E-03
   12 C12         6.481234E-03   1.192855E-02   6.642944E-03
   13 C13        -5.451667E-03  -1.812952E-03  -1.594344E-03
   14 C14        -1.871593E-02   3.874773E-02  -9.620278E-03
   15 C15         1.594093E-02   1.381013E-03  -2.121136E-03
   16 C16        -1.497237E-02   3.263345E-02   1.628636E-02
   17 C17        -2.041247E-03  -1.921403E-02   1.770880E-02
   18 O18        -1.676362E-03  -1.029196E-02  -7.126464E-03
   19 C19         2.150227E-02  -2.309324E-03  -1.560757E-03
   20 C20         1.282474E-02  -8.323443E-04   9.508689E-03
   21 C21        -2.750684E-02  -3.163880E-02   5.226854E-03
   22 O22        -4.011377E-03   1.158644E-02   1.418076E-02
   23 C23        -6.812147E-03  -1.792956E-02  -5.046719E-03
   24 O24        -3.428934E-03   6.579351E-03  -2.193541E-05
   25 C25         2.070135E-02  -7.651359E-03   3.344416E-03
   26 O26        -1.487950E-02  -5.650948E-03  -7.424048E-03
   27 C27         2.545561E-02   3.428063E-03   1.363423E-02
   28 O28         1.587827E-03  -1.597672E-02   6.663850E-04
   29 C29         1.095663E-02   2.438154E-02   7.488630E-03
   30 O30         2.628047E-03  -1.792642E-02   9.617652E-05
   31 H31         3.078481E-03   1.589640E-02   4.472179E-03
   32 H32        -2.148168E-03   3.506083E-03  -3.696469E-03
   33 H33        -1.113647E-02  -5.949596E-03   1.128125E-02
   34 H34        -2.837134E-02   1.015283E-02  -6.989895E-03
   35 H35        -6.577809E-03  -6.094993E-03   7.043215E-03
   36 H36        -1.904153E-02  -4.110365E-03  -1.443134E-02
   37 H37        -8.242383E-03   2.213178E-03   8.065593E-03
   38 H38         5.165922E-03  -2.762882E-04  -3.073923E-03
   39 H39         9.806430E-03   1.653653E-02  -1.221466E-03
   40 H40         3.734839E-03  -1.721858E-03  -1.812203E-03
   41 H41         2.720870E-02   6.162557E-03   1.670678E-02
   42 H42         2.138654E-03   1.289931E-03   4.607256E-04
   43 H43         2.419931E-03   3.633992E-03   3.200130E-03
   44 H44         1.916562E-03   2.600425E-03   9.761908E-04
   45 H45        -1.300436E-03   5.868272E-04  -6.223993E-04
   46 H46        -9.159613E-04  -4.953400E-03  -7.780101E-05
   47 H47        -2.189614E-03  -5.365217E-03  -9.624030E-04
   48 H48        -6.227774E-03  -5.085921E-05  -3.215815E-03
   49 H49        -5.130200E-04  -3.966361E-03   2.210563E-03
   50 H50         2.624893E-03  -4.201766E-03  -1.838454E-03
   51 H51        -5.636351E-03  -7.441656E-03  -2.981471E-03
   52 H52        -9.045517E-04  -3.063344E-03   2.858836E-03
   53 H53         2.670585E-03  -2.312158E-03  -2.175143E-03
   54 H54        -4.959653E-03   3.500112E-04  -3.497327E-03
 -------------   -------------  -------------  -------------
     total       -8.361153E-04   2.187368E-04   4.531782E-04
   
  Peak memory usage:   6744 Mb
  
  end of program der1b
   
 Time(der1b)  user:       90.6  user+sys:       90.6  wallclock:        6.3
  
  start of program geopt
  
 ----------------------------------------------------------------------------
  Geometry optimization step  3
  Total energy:     -1358.33803837612 hartrees
 ----------------------------------------------------------------------------
  
  
  Level shifts adjusted to satisfy step-size constraints
   Step size:    0.3001178
   Cos(theta):   0.9596419
   Final level shift:  -6.5236349E-01
  
  energy change:          -9.0806E-02 .  (  5.0000E-05 )
  gradient maximum:        7.5517E-02 .  (  4.5000E-04 )
  gradient rms:            2.0518E-02 .  (  3.0000E-04 )
  displacement maximum:    7.6100E-02 .  (  1.8000E-03 )
  displacement rms:        2.2620E-02 .  (  1.2000E-03 )
  
  predicted energy change:  -6.8585E-02
  step size:     0.30009
  trust radius:  0.30000
  
  molecular structure not yet converged...
  
  center of mass moved by:
     x:     4.9100E-03     y:     2.2041E-02     z:     2.0904E-03
  
  new geometry: 
                                   angstroms
  atom               x                 y                 z
  C1           -0.6012178571      3.9011114902      2.2315270773 
  C2           -0.0102231662      2.5213265390      2.2124301016 
  N3            0.8448994873      2.0633149817      1.3814396711 
  C4            2.1195669716      2.4876444101      0.6791701742 
  H5            2.1914945198      1.8596155745     -0.2194933714 
  C6            2.8044527223      3.8279373332      0.4724232078 
  C7            2.2897088110      4.7771387615      1.5098016555 
  C8            3.4127001180      5.4765792482      2.1775293616 
  C9            3.2750586140      6.8618606017      2.3303759937 
  C10           4.2631475114      7.6302384679      2.9306796395 
  C11           5.3547529892      6.9145134369      3.4663002027 
  C12           5.4128415106      5.4411149552      3.4050149233 
  C13           4.4148068206      4.6236641343      2.7388304161 
  C14           4.1715203850      2.9093118542      2.6406837880 
  C15           3.1097691310      1.8611874570      1.7202159903 
  C16           2.8639329841      0.5324037653      2.0024067638 
  C17           3.1623828989      0.1771260624      3.4023881220 
  O18           2.4153824821      0.4348280185      4.3586428466 
  C19           4.6000946366     -0.1470736810      3.5281247333 
  C20           5.3062449756      0.9795849846      3.7458209342 
  C21           4.6420126170      2.3023076676      3.8191242922 
  O22           5.1835418780     -1.2703231745      2.9827040551 
  C23           4.3048827574     -2.3583682015      2.5712747192 
  O24           6.5605729000      5.0555546049      4.0659466703 
  C25           6.9374314916      3.6904069981      4.2203078878 
  O26           6.2916107594      7.7293042428      4.0554178505 
  C27           7.5479925925      7.3696432735      4.6562555742 
  O28           4.0400368820      8.9757921561      2.9163794714 
  C29           5.0006380820      9.9632977777      3.3717496971 
  O30          -0.5740887029      1.6300171504      3.0913986693 
  H31          -0.2808592372      4.3453477071      1.2956775372 
  H32          -0.3168169944      4.4946755638      3.1053835685 
  H33          -1.6848606402      3.8856928367      2.1214898409 
  H34           2.8520592732      4.2016833326     -0.5544918714 
  H35           3.8856225931      3.6652215325      0.5631154403 
  H36           1.9181522061      4.2320938975      2.3836064057 
  H37           1.5777738853      5.4630381696      1.0665818798 
  H38           2.3757131454      7.3429926275      1.9612284428 
  H39           2.1393509439     -0.0758049871      1.4445954164 
  H40           6.3775380176      0.9757580969      3.5712717992 
  H41           4.0283544930      2.6127336632      4.6799129045 
  H42           4.8750939448     -3.2790963476      2.6960974749 
  H43           4.0249133988     -2.2576158724      1.5151262206 
  H44           3.4042411486     -2.4266331910      3.1926724298 
  H45           7.9062860197      3.6996866793      4.7267109257 
  H46           7.0481379452      3.2128362841      3.2464914876 
  H47           6.2100369935      3.1659726539      4.8470081667 
  H48           8.0320302413      8.3172197058      4.9175889157 
  H49           8.1875496194      6.8328009950      3.9563604445 
  H50           7.3897360687      6.7984703285      5.5707110339 
  H51           4.5659760841     10.9438931080      3.1552710100 
  H52           5.9483638910      9.8757201810      2.8356013765 
  H53           5.1599271513      9.8847737660      4.4490138176 
  H54          -1.0420564522      2.0698024397      3.8274396324 
   
  nuclear repulsion energy.......    2869.417636491 hartrees
  -------------------------------------------------
 /  end of geometry optimization iteration   3   /
 -------------------------------------------------
   
  Peak memory usage:   4733 Mb
  
  end of program geopt
   
 Time(geopt)  user:       11.1  user+sys:       11.1  wallclock:        0.9
  
  start of program onee
  
  smallest eigenvalue of S:    6.065E-04
  number of canonical orbitals.....          311
  Peak memory usage:   4838 Mb
  
  end of program onee
   
 Time(onee)  user:        5.2  user+sys:        5.2  wallclock:        0.8
  
  start of program probe
  
  Peak memory usage:   4756 Mb
  
  end of program probe
   
 Time(probe)  user:        3.1  user+sys:        3.1  wallclock:        0.5
  
  start of program grid
  
   grid     grid set  grid #  grid sym
  ------    --------  ------  --------
  coarse        0        0        1
  medium        2        1        1
  fine          0        0        1
  ultrafine     4        2        1
  charge       -1        3        1
  gradient      4        2        1
  density       0        0        1
  DFT-fine    -11        4        1
  DFT-med.    -10        5        1
  DFT-grad    -12        6        1
  DFT-der2      0        0        1
  DFT-cphf      0        0        1
  LMP2-enrg     4        2        1
  LMP2-grad     2        1        1
  DFT-cphf2     0        0        1
  PBF-dens      0        0        1
  plotting      0        0        1
  Rel-grad    -17        0        1
  
  number of gridpoints: 
     atom        C1       C2       N3       C4       H5       C6       C7
  grid # 1       79       97      108       92      111       88       82
  grid # 2      260      352      422      326      437      291      290
  grid # 3        6       80      260       23      932        8        6
  grid # 4     4304     4304     4304     4304     4304     4304     4304
  grid # 5     1192     1192     1192     1192     1192     1192     1192
  grid # 6     5226     5226     5226     5226     5226     5226     5226
   
  number of gridpoints: 
     atom        C8       C9      C10      C11      C12      C13      C14
  grid # 1       99       97       97      100      102       99      104
  grid # 2      351      336      360      359      365      382      386
  grid # 3       97      207      211      226      202       91       59
  grid # 4     4304     4304     4304     4304     4304     4304     4304
  grid # 5     1192     1192     1192     1192     1192     1192     1192
  grid # 6     5226     5226     5226     5226     5226     5226     5226
   
  number of gridpoints: 
     atom       C15      C16      C17      O18      C19      C20      C21
  grid # 1      101       94       95      121       98       96       92
  grid # 2      379      342      357      502      362      341      329
  grid # 3      102       67       11     1007      166      138        6
  grid # 4     4304     4304     4304     4304     4304     4304     4304
  grid # 5     1192     1192     1192     1192     1192     1192     1192
  grid # 6     5226     5226     5226     5226     5226     5226     5226
   
  number of gridpoints: 
     atom       O22      C23      O24      C25      O26      C27      O28
  grid # 1      116       79      113       76      116       77      114
  grid # 2      459      261      431      262      431      264      451
  grid # 3      607        6      153        6      168        6      511
  grid # 4     4304     4304     4304     4304     4304     4304     4304
  grid # 5     1192     1192     1192     1192     1192     1192     1192
  grid # 6     5226     5226     5226     5226     5226     5226     5226
   
  number of gridpoints: 
     atom       C29      O30      H31      H32      H33      H34      H35
  grid # 1       76      113      105      110      111      113      104
  grid # 2      264      420      416      433      438      441      413
  grid # 3        6      657      585      845     1109     1035      549
  grid # 4     4304     4304     4304     4304     4304     4304     4304
  grid # 5     1192     1192     1192     1192     1192     1192     1192
  grid # 6     5226     5226     5226     5226     5226     5226     5226
   
  number of gridpoints: 
     atom       H36      H37      H38      H39      H40      H41      H42
  grid # 1      103      105      114      111      112      113      112
  grid # 2      405      418      438      436      435      433      448
  grid # 3      224      455      974      711      859      764     1293
  grid # 4     4304     4304     4304     4304     4304     4304     4304
  grid # 5     1192     1192     1192     1192     1192     1192     1192
  grid # 6     5226     5226     5226     5226     5226     5226     5226
   
  number of gridpoints: 
     atom       H43      H44      H45      H46      H47      H48      H49
  grid # 1      110      110      110      109      105      111      109
  grid # 2      439      434      443      423      410      442      434
  grid # 3     1001      924     1058      673      499     1099      929
  grid # 4     4304     4304     4304     4304     4304     4304     4304
  grid # 5     1192     1192     1192     1192     1192     1192     1192
  grid # 6     5226     5226     5226     5226     5226     5226     5226
   
  number of gridpoints: 
     atom       H50      H51      H52      H53      H54    total
  grid # 1      109      113      110      109      112     5562
  grid # 2      435      447      435      436      447    21151
  grid # 3      951     1304      948      942     1152    26908
  grid # 4     4304     4304     4304     4304     4304   232416
  grid # 5     1192     1192     1192     1192     1192    64368
  grid # 6     5226     5226     5226     5226     5226   282204
   
  Peak memory usage:   4784 Mb
  
  end of program grid
   
 Time(grid)  user:       37.3  user+sys:       37.3  wallclock:        2.8
  
  start of program rwr
  
  Peak memory usage:   4745 Mb
  
  end of program rwr
   
 Time(rwr)  user:       59.7  user+sys:       59.7  wallclock:        6.0
  
  start of program scf
  
 Energy computed with NOPS off.
  
       i  u  d  i  g                   
       t  p  i  c  r                                 RMS    maximum
       e  d  i  u  i                       energy  density   DIIS  
       r  t  s  t  d       total energy    change  change    error 
  
etot    1  N  N  2  U   -1358.36271684289           9.6E-04  9.6E-03
etot    2  Y  Y  6  M   -1358.40227924779  4.0E-02  3.6E-04  2.0E-03
etot    3  N  Y  2  U   -1358.40123169482 -1.0E-03  3.2E-04  5.4E-03
etot    4  Y  Y  6  M   -1358.40349922584  2.3E-03  1.6E-04  4.8E-03
etot    5  Y  Y  6  M   -1358.40413466020  6.4E-04  4.7E-05  1.4E-03
etot    6  N  Y  2  U   -1358.40411871256 -1.6E-05  2.4E-05  4.5E-04
etot    7  N  Y  2  U   -1358.40413349468  1.5E-05  1.4E-05  2.3E-04
etot    8  N  Y  2  U   -1358.40413922939  5.7E-06  1.3E-05  2.1E-04
etot    9  N  Y  2  U   -1358.40414442606  5.2E-06  1.5E-05  1.5E-04
etot   10  N  Y  2  U   -1358.40414845698  4.0E-06  1.3E-05  9.6E-05
etot   11  N  Y  2  U   -1358.40415106417  2.6E-06  1.1E-05  7.2E-05
etot   12  N  Y  2  U   -1358.40415244077  1.4E-06  8.6E-06  5.4E-05
etot   13  N  Y  2  U   -1358.40415298192  5.4E-07  3.4E-06  5.0E-05
etot   14  N  N  2  U   -1358.40415330263  3.2E-07  0.0E+00  0.0E+00
  
  
 Energy components, in hartrees:
   (A)  Nuclear repulsion............    2869.41763649085
   (E)  Total one-electron terms.....   -7531.44687691502
   (I)  Total two-electron terms.....    3303.62508712154
   (L)  Electronic energy............   -4227.82178979348  (E+I)
   (N)  Total energy.................   -1358.40415330263  (A+L)
   (O)  Gas phase energy.............   -1358.40415330263
  
                                 Total             Coulomb       Exchange+Corr.
 Total two-electron terms    3303.62508712154    3490.26401302533    -186.63892590379
   Hamiltonian  1........    1686.94124027467    1753.33880652328     -66.39756624862
   Hamiltonian  2........    1670.95586492143    1736.92520650204     -65.96934158061
  
 SCFE: SCF energy: UDFT(b3lyp)     -1358.40415330263 hartrees   iterations:  14
  
 
 Alpha HOMO energy:    -0.32159
 Alpha LUMO energy:    -0.23027
 
  Alpha Orbital energies (hartrees): 
   -19.30561   -19.30364   -19.30189   -19.29707   -19.27767   -19.27243
   -14.43855   -10.41254   -10.41033   -10.40549   -10.40082   -10.39612
   -10.39000   -10.37785   -10.37721   -10.36569   -10.36545   -10.35826
   -10.35551   -10.34191   -10.34083   -10.33763   -10.33194   -10.33145
   -10.31350   -10.30411   -10.29868   -10.29680   -10.29667    -1.20881
    -1.19316    -1.18837    -1.18001    -1.17496    -1.17303    -1.03359
    -0.99850    -0.98027    -0.94628    -0.92883    -0.90353    -0.89238
    -0.88655    -0.86013    -0.84727    -0.83238    -0.81529    -0.81135
    -0.78784    -0.76888    -0.74872    -0.74189    -0.71738    -0.70322
[...]
  grid # 3        6      856      614     1043     1079      855      690
  grid # 4     4304     4304     4304     4304     4304     4304     4304
  grid # 5     1192     1192     1192     1192     1192     1192     1192
  grid # 6     5226     5226     5226     5226     5226     5226     5226
   
  number of gridpoints: 
     atom       H36      H37      H38      H39      H40      H41      H42
  grid # 1      108      109      115      110      118      108      113
  grid # 2      434      431      439      425      442      428      448
  grid # 3      811      818      982      685     1150      618     1309
  grid # 4     4304     4304     4304     4304     4304     4304     4304
  grid # 5     1192     1192     1192     1192     1192     1192     1192
  grid # 6     5226     5226     5226     5226     5226     5226     5226
   
  number of gridpoints: 
     atom       H43      H44      H45      H46      H47      H48      H49
  grid # 1      112      112      111      107      112      111      108
  grid # 2      439      439      448      428      443      446      428
  grid # 3     1046     1053     1177      727      990     1138      724
  grid # 4     4304     4304     4304     4304     4304     4304     4304
  grid # 5     1192     1192     1192     1192     1192     1192     1192
  grid # 6     5226     5226     5226     5226     5226     5226     5226
   
  number of gridpoints: 
     atom       H50      H51      H52      H53      H54    total
  grid # 1      110      112      112      109      113     5553
  grid # 2      439      448      436      435      444    21144
  grid # 3      962     1300      963      795     1202    28216
  grid # 4     4304     4304     4304     4304     4304   232416
  grid # 5     1192     1192     1192     1192     1192    64368
  grid # 6     5226     5226     5226     5226     5226   282204
   
  Peak memory usage:   4784 Mb
  
  end of program grid
   
 Time(grid)  user:       34.0  user+sys:       34.0  wallclock:        2.9
  
  start of program rwr
  
  Peak memory usage:   4745 Mb
  
  end of program rwr
   
 Time(rwr)  user:       58.5  user+sys:       58.5  wallclock:        6.0
  
  start of program scf
  
 Energy computed with NOPS off.
  
       i  u  d  i  g                   
       t  p  i  c  r                                 RMS    maximum
       e  d  i  u  i                       energy  density   DIIS  
       r  t  s  t  d       total energy    change  change    error 
  
etot    1  N  N  2  U   -1358.74663565254           4.7E-05  1.0E-03
etot    2  N  Y  2  U   -1358.74674059051  1.0E-04  1.1E-05  1.0E-04
etot    3  N  Y  2  U   -1358.74673933590 -1.3E-06  8.3E-06  2.6E-04
etot    4  N  Y  2  U   -1358.74674205886  2.7E-06  2.3E-06  7.8E-05
etot    5  N  N  2  U   -1358.74674215064  9.2E-08  0.0E+00  0.0E+00
  
  
 Energy components, in hartrees:
   (A)  Nuclear repulsion............    2829.79227605234
   (E)  Total one-electron terms.....   -7453.43284157631
   (I)  Total two-electron terms.....    3264.89382337332
   (L)  Electronic energy............   -4188.53901820298  (E+I)
   (N)  Total energy.................   -1358.74674215064  (A+L)
   (O)  Gas phase energy.............   -1358.74674215064
  
                                 Total             Coulomb       Exchange+Corr.
 Total two-electron terms    3264.89382337332    3451.70575737731    -186.81193400398
   Hamiltonian  1........    1667.22197073575    1733.70427045401     -66.48229971826
   Hamiltonian  2........    1651.98818497198    1718.00148692330     -66.01330195132
  
 SCFE: SCF energy: UDFT(b3lyp)     -1358.74674215064 hartrees   iterations:   5
  
 
 Alpha HOMO energy:    -0.32990
 Alpha LUMO energy:    -0.20964
 
  Alpha Orbital energies (hartrees): 
   -19.33007   -19.30330   -19.28827   -19.28293   -19.26692   -19.26268
   -14.41791   -10.42004   -10.39847   -10.39374   -10.39255   -10.38425
   -10.37243   -10.36259   -10.34580   -10.34501   -10.34271   -10.34112
   -10.34073   -10.33953   -10.33872   -10.33830   -10.33761   -10.33255
   -10.32315   -10.30810   -10.29882   -10.29816   -10.29450    -1.21907
    -1.19326    -1.17800    -1.16552    -1.15883    -1.15263    -1.03427
    -1.00443    -0.97640    -0.93909    -0.91738    -0.90950    -0.88130
    -0.87176    -0.84931    -0.84410    -0.83084    -0.81794    -0.80609
    -0.79098    -0.78163    -0.76807    -0.73347    -0.72853    -0.70280
    -0.68774    -0.67993    -0.66620    -0.64595    -0.63617    -0.63181
    -0.62945    -0.60779    -0.59982    -0.59660    -0.59373    -0.59158
    -0.58858    -0.57951    -0.57145    -0.56657    -0.56606    -0.56051
    -0.55215    -0.54986    -0.54842    -0.54428    -0.54324    -0.53693
    -0.53095    -0.52992    -0.51674    -0.51199    -0.50276    -0.49983
    -0.49744    -0.49082    -0.48495    -0.47537    -0.47412    -0.46895
    -0.46407    -0.46022    -0.45686    -0.44864    -0.44613    -0.44249
    -0.42553    -0.41382    -0.39882    -0.38501    -0.37826    -0.36504
    -0.35874    -0.35161    -0.34749    -0.32990    -0.20964    -0.18248
    -0.12774    -0.12465    -0.08648    -0.05892    -0.03793    -0.03723
    -0.02868    -0.01913
 
 
 Beta HOMO energy:    -0.33957
 Beta LUMO energy:    -0.27808
 
  Beta Orbital energies (hartrees): 
   -19.32650   -19.30128   -19.28806   -19.28279   -19.26691   -19.25438
   -14.41778   -10.41777   -10.39990   -10.39375   -10.39130   -10.38379
   -10.37240   -10.36094   -10.34585   -10.34399   -10.34390   -10.34107
   -10.34064   -10.33878   -10.33843   -10.33827   -10.33791   -10.33209
   -10.32133   -10.30804   -10.29886   -10.29815   -10.29454    -1.21154
    -1.19027    -1.17661    -1.16550    -1.15205    -1.14433    -1.03397
    -1.00180    -0.97358    -0.93737    -0.91408    -0.90777    -0.87884
    -0.87003    -0.84883    -0.84289    -0.83028    -0.81726    -0.80461
    -0.78978    -0.77912    -0.76632    -0.73228    -0.72728    -0.70185
    -0.68652    -0.67867    -0.66502    -0.64456    -0.63544    -0.63022
    -0.62838    -0.60700    -0.59817    -0.59308    -0.59017    -0.58736
    -0.58520    -0.57748    -0.57097    -0.56609    -0.56451    -0.55906
    -0.55116    -0.54927    -0.54686    -0.54259    -0.54042    -0.53637
    -0.53018    -0.52136    -0.51453    -0.51059    -0.50135    -0.49767
    -0.49517    -0.48204    -0.47482    -0.47164    -0.46988    -0.46608
    -0.46026    -0.45776    -0.45529    -0.44600    -0.44565    -0.44082
    -0.42140    -0.40943    -0.39137    -0.38352    -0.37020    -0.35786
    -0.35261    -0.34629    -0.33957    -0.27808    -0.19136    -0.16977
    -0.12241    -0.11662    -0.08624    -0.05808    -0.03776    -0.03443
    -0.02374
 
  
  
    Unrestricted Spin Properties ...
    Sz*(Sz+1)      0.750
    <S**2> ...     0.778
  
  
  Peak memory usage:   6751 Mb
  
  end of program scf
   
 Time(scf)  user:      188.5  user+sys:      188.5  wallclock:       13.2
  
  start of program der1a
  
  Peak memory usage:   4838 Mb
  
  end of program der1a
   
 Time(der1a)  user:        2.9  user+sys:        2.9  wallclock:        0.5
  
  start of program rwr
  
  Peak memory usage:   4745 Mb
  
  end of program rwr
   
 Time(rwr)  user:       49.3  user+sys:       49.3  wallclock:        7.0
  
  start of program der1b
  
   
  forces (hartrees/bohr) : total     
   
 atom  label           x              y              z
 ---- --------   -------------  -------------  -------------
    1 C1         -1.444780E-04   5.872140E-06   8.804490E-05
    2 C2          5.335593E-05  -5.793669E-05   1.142677E-04
    3 N3          3.632895E-05   1.121558E-05  -1.409035E-04
    4 C4          1.613157E-05  -7.684641E-05   2.131669E-05
    5 H5         -9.914426E-05  -5.465833E-05   5.184956E-06
    6 C6         -3.428884E-05   9.798789E-06   1.196807E-04
    7 C7         -6.433754E-05   8.460049E-06  -5.502334E-05
    8 C8          2.889878E-05  -6.034125E-05   2.069354E-05
    9 C9         -4.466179E-05  -1.913231E-05  -1.654344E-05
   10 C10         1.005340E-04   3.839864E-05   9.652293E-05
   11 C11         2.573879E-05  -8.995495E-05  -1.680164E-05
   12 C12        -1.416218E-04  -1.262262E-05   7.236312E-05
   13 C13        -3.922198E-05  -2.673056E-05  -1.109075E-04
   14 C14         1.212548E-04   7.129504E-05   5.754037E-05
   15 C15        -6.841606E-05  -2.581023E-05   3.369232E-05
   16 C16        -6.504857E-05  -2.487990E-05   1.022241E-05
   17 C17        -1.977178E-05  -3.585765E-05   2.620739E-05
   18 O18         1.843012E-05  -3.939822E-05   5.972205E-05
   19 C19         1.450968E-05  -5.316505E-05   2.020573E-05
   20 C20        -5.764822E-05  -1.148986E-05   3.351934E-05
   21 C21        -1.305138E-05   1.409288E-05  -2.662477E-05
   22 O22        -7.724566E-05   1.683292E-05   3.329578E-05
   23 C23         7.779899E-06   3.677997E-06  -2.181674E-05
   24 O24         4.883629E-05  -7.393900E-05   4.783748E-05
   25 C25        -5.834884E-05  -2.231168E-05  -3.947490E-07
   26 O26        -7.843118E-05  -4.863040E-05  -2.431434E-06
   27 C27         3.134149E-05  -4.205211E-05  -6.111040E-06
   28 O28        -2.701323E-05  -1.428712E-07  -1.367721E-04
   29 C29        -1.238856E-05  -1.652986E-05   1.393692E-05
   30 O30        -5.329760E-05  -4.562874E-05   1.115873E-05
   31 H31         1.434488E-05  -5.695361E-05   3.421764E-05
   32 H32         2.371727E-05  -4.167709E-05   2.840153E-05
   33 H33        -1.534756E-05  -6.123552E-05  -7.253393E-06
   34 H34         1.562254E-05   2.678912E-05   5.878599E-05
   35 H35        -1.689626E-05   2.388565E-05   1.127886E-05
   36 H36         7.192118E-06  -3.502494E-05   7.274492E-05
   37 H37         2.576357E-06  -2.214727E-05   2.360021E-05
   38 H38        -1.467541E-05  -2.293160E-05   3.942384E-06
   39 H39        -9.928780E-06  -2.295444E-05   4.079255E-05
   40 H40        -3.108816E-06  -6.906156E-06   1.598153E-05
   41 H41        -6.765865E-06  -7.863897E-06   3.702493E-06
   42 H42        -2.746986E-05  -1.628448E-05   5.176849E-05
   43 H43        -3.538848E-05  -9.810951E-06   3.529007E-05
   44 H44        -3.691669E-05   1.751635E-05   6.152962E-05
   45 H45        -1.501982E-05  -3.524739E-05  -4.861788E-07
   46 H46        -9.336086E-06  -3.668194E-05  -1.558860E-05
   47 H47        -2.326911E-05  -3.736321E-05  -1.171456E-05
   48 H48         1.548745E-05  -1.482284E-05  -3.044797E-05
   49 H49        -2.385473E-05  -6.425882E-06  -3.484262E-05
   50 H50        -3.101384E-06  -1.269539E-05  -8.213411E-06
   51 H51         7.941137E-06  -1.848454E-05  -1.221731E-05
   52 H52        -1.070792E-05  -1.953579E-05  -2.487647E-05
   53 H53         9.032407E-06  -1.704435E-05  -1.184794E-05
   54 H54        -4.875616E-05  -4.936555E-05   2.353841E-05
 -------------   -------------  -------------  -------------
     total       -7.999037E-04  -1.141680E-03   6.591689E-04
   
  Peak memory usage:   6744 Mb
  
  end of program der1b
   
 Time(der1b)  user:       86.0  user+sys:       86.0  wallclock:        5.9
  
  start of program geopt
  
 ----------------------------------------------------------------------------
  Geometry optimization step 58
  Total energy:     -1358.74674215064 hartrees
 ----------------------------------------------------------------------------
  
  energy change:           6.7847E-06 *  (  5.0000E-05 )
  gradient maximum:        2.6171E-04 *  (  4.5000E-04 )
  gradient rms:            5.3763E-05 #  (  3.0000E-04 )
  displacement maximum:    5.5721E-03 .  (  1.8000E-03 )
  displacement rms:        8.3711E-04 *  (  1.2000E-03 )
  
  predicted energy change:  -1.2227E-06
  step size:     0.01111
  trust radius:  0.30000
  
  ********************************************************
  **           Geometry optimization complete           **
  ********************************************************
  
  Checking the geometry optimization convergence pattern ...
  
  WARNING:
  There were 58 geometry optimization steps,
  which indicates difficult convergence and can be
  symptomatic of potential problems with the initial
  and/or the final (converged) structures.
  
  WARNING:
  The energy on the last optimization iteration,
    -1358.746742150639
  is higher than the energy on one of the previous iterations,
    -1358.746748935291
  The difference between these two energies is 0.004 kcal/mole.
  This situation is symptomatic of potential problems with the
  initial and/or the converged structures.
  
  best                    worst
  ==0=====1=====2=====3=====4==
                      ^        
  
  Convergence category 3: convergence to a non-optimal structure.
  The difference between the final and the minimal
  energies is less than 0.010 kcal/mole.
  Peudospectral approximation:
  Geometry optimization was OK.
  
  Number of imaginary frequencies:   0
  
  center of mass moved by:
     x:     0.0000E+00     y:     0.0000E+00     z:     0.0000E+00
  
  final geometry: 
                                   angstroms
  atom               x                 y                 z
  C1            0.8770140154      4.0121311885     -0.8350902776 
  C2            0.6443480549      2.7617045257     -0.0180219315 
  N3            1.0476799724      2.4734126295      1.1580810360 
  C4            1.8563088668      3.3401855900      1.9975104117 
  H5            2.4876686927      4.0277873860      1.4135016252 
  C6            0.9276095864      4.1935216872      2.9031317335 
  C7            1.6886149553      4.8260796313      4.0877617029 
  C8            3.0135406229      5.4315372254      3.6723717674 
  C9            3.1645508788      6.8067792022      3.6838655178 
  C10           4.3855287652      7.4355203423      3.3540841299 
  C11           5.5022404622      6.6317709285      3.0200723014 
  C12           5.3552178513      5.2406128253      2.9690997235 
  C13           4.1254927546      4.5914005284      3.3086836353 
  C14           4.0065856901      3.1270362573      3.3579144809 
  C15           2.8162205713      2.4824900974      2.8556993396 
  C16           2.4411916647      1.1688337543      3.0370837655 
  C17           3.0048281607      0.0386042510      3.7421328535 
  O18           2.2695811071     -0.9857262500      3.9252554063 
  C19           4.4014761224     -0.0061879208      4.1975071898 
  C20           5.2828839998      1.0865777606      4.2567384059 
  C21           5.1049444169      2.4218416200      3.9234679470 
  O22           4.9648297481     -1.1399226852      4.6382373950 
  C23           4.3641636235     -2.5002422928      4.6955000817 
  O24           6.4454689873      4.4635872624      2.5909379188 
  C25           6.9529382291      4.6123272993      1.2041802412 
  O26           6.7162590954      7.2296546358      2.6833585857 
  C27           7.8407131208      7.0266803869      3.6293542904 
  O28           4.3430652973      8.7891724668      3.4141133622 
  C29           5.4398047632      9.7038422731      3.0448823087 
  O30          -0.1241467062      1.7901481424     -0.6346038919 
  H31           1.5343360852      4.7216157868     -0.3298338445 
  H32          -0.0748298430      4.5203808662     -1.0323215601 
  H33           1.3288625587      3.7604318162     -1.8020076376 
  H34           0.1253371119      3.5485678445      3.2774229503 
  H35           0.4630249934      4.9711996845      2.2848106544 
  H36           1.8589344582      4.0591982777      4.8534632587 
  H37           1.0654315603      5.5952825175      4.5527686935 
  H38           2.3437970289      7.4518782341      3.9731457651 
  H39           1.5011947152      0.9070862014      2.5554453009 
  H40           6.2503637082      0.8276113426      4.6755538464 
  H41           5.9611295606      3.0412601269      4.1520267638 
  H42           5.2037850508     -3.1189582351      5.0033796835 
  H43           3.9876644430     -2.7855583015      3.7143608762 
  H44           3.5554746864     -2.5143038101      5.4226793778 
  H45           7.8017850710      3.9334562315      1.1459960959 
  H46           7.2607562280      5.6420249276      1.0221327403 
  H47           6.1741502009      4.3084708551      0.4992730166 
  H48           8.6741928288      7.5749349395      3.1936153602 
  H49           8.0778929107      5.9649395113      3.7138437887 
  H50           7.5824709985      7.4410749007      4.6083695197 
  H51           4.9743712673     10.6864988914      3.0871551540 
  H52           5.8081141166      9.4814711991      2.0448641944 
  H53           6.2507227265      9.6347748273      3.7714335878 
  H54          -0.4283639836      2.0558457131     -1.5246286932 
   
  principal moments of inertia:
        amu*angstrom^2:     2402.99985     4608.62732     6009.21801
                g*cm^2: 3.99027463E-37 7.65280476E-37 9.97854002E-37
   
  rotational constants:
               cm^(-1):      0.00701524      0.00365784      0.00280529
                   GHz:      0.21031171      0.10965933      0.08410063
   
  nuclear repulsion energy.......    2829.792276052 hartrees
  -------------------------------------------------
 /  end of geometry optimization iteration  58   /
 -------------------------------------------------
   
  Peak memory usage:   4827 Mb
  
  end of program geopt
   
 Time(geopt)  user:       14.2  user+sys:       14.2  wallclock:        1.1
  
  start of program ch
  
  Moments from quantum mechanical wavefunction:
  Dipole Moments  (Debye)
     X=     4.1351     Y=     2.9641     Z=    -1.5402  Tot=     5.3157
  
  gridpoints used for charge fit        26624
    out of a possible maximum of        28216
  
   Electrostatic potential fitting constrained to reproduce
     total charge:                yes
     dipole moment:               yes
     traceless quadrupole moment: no 
     traceless octapole moment:   no 
  
  Atomic charges from electrostatic potential: 
   
 Atom       C1           C2           N3           C4           H5      
 Charge   -0.52778      0.73398     -0.69136      0.60792     -0.06717
   
 Atom       C6           C7           C8           C9           C10     
 Charge   -0.24020      0.08302      0.13412     -0.57233      0.63216
   
 Atom       C11          C12          C13          C14          C15     
 Charge   -0.02531      0.25166     -0.21640      0.15212     -0.05860
   
 Atom       C16          C17          O18          C19          C20     
 Charge   -0.30194      0.56952     -0.47021      0.35290     -0.32382
   
 Atom       C21          O22          C23          O24          C25     
 Charge   -0.01451     -0.29520     -0.07534     -0.33919     -0.06326
   
 Atom       O26          C27          O28          C29          O30     
 Charge   -0.32607     -0.13652     -0.41163      0.07369     -0.67189
   
 Atom       H31          H32          H33          H34          H35     
 Charge    0.14770      0.15713      0.15231      0.09023      0.06539
   
 Atom       H36          H37          H38          H39          H40     
 Charge    0.00539      0.05541      0.23057      0.17842      0.18900
   
 Atom       H41          H42          H43          H44          H45     
 Charge    0.14500      0.11887      0.13921      0.14117      0.12363
   
 Atom       H46          H47          H48          H49          H50     
 Charge    0.11177      0.08953      0.14173      0.11818      0.12202
   
 Atom       H51          H52          H53          H54     
 Charge    0.09318      0.07166      0.07727      0.47287
  
  sum of atomic charges:     1.000000
   
 RMS Error   9.26E-04 hartrees
 
  
  Moments from electrostatic potential charges:
  Dipole Moments  (Debye)
     X=     4.1351     Y=     2.9641     Z=    -1.5402  Tot=     5.3157
  
  Peak memory usage:   4834 Mb
  
  end of program ch
   
 Time(ch)  user:        6.7  user+sys:        6.7  wallclock:        4.8

 Total cpu seconds     user:   29915.628   user+sys:   29915.628
  
 Total elapsed time:    2669 seconds

Job colchicine_1 completed on n045 at Sun Jan  8 23:08:55 2017
