Job Diethylstilbestrol_1 started on n046 at Sun Jan  8 22:24:29 2017
jobid: u01-0-58730269

  +--------------------------------------------------------------------+
  |  Jaguar version 9.3, release  15                                   |
  |                                                                    |
  |  Copyright Schrodinger, Inc.                                       |
  |  All Rights Reserved.                                              |
  |                                                                    |
  |  The following have contributed to Jaguar (listed alphabetically): |
  |  Mike Beachy, Art Bochevarov, Dale Braden, Yixiang Cao,            |
  |  Chris Cortis, Rich Friesner, Bill Goddard, Hod Greeley,           |
  |  Tom Hughes, Leif Jacobson, Jean-Marc Langlois,                    |
  |  Daniel Mainz, Rob Murphy, Dean Philipp,                           |
  |  Tom Pollard, Murco Ringnalda, Mark Watson.                        |
  |                                                                    |
  |  Use of this program should be acknowledged in publications as:    |
  |                                                                    |
  |  Jaguar, version 9.3, Schrodinger, Inc., New York, NY, 2016.       |
  |                                                                    |
  |  A. D. Bochevarov, E. Harder, T. F. Hughes, J. R. Greenwood,       |
  |  D. A. Braden, D. M. Philipp, D. Rinaldo, M. D. Halls,             |
  |  J. Zhang, R. A. Friesner, "Jaguar: A High-Performance Quantum     |
  |  Chemistry Software Program with Strengths in Life and Materials   |
  |  Sciences", Int. J. Quantum Chem., 2013, 113(18), 2110-2142.       |
  +--------------------------------------------------------------------+
  
  start of program pre
  
  Job name: Diethylstilbestrol_1
  Executables used: /home/applications/Schrodinger_Suites_2016-3/jaguar-v9.3/bin/Linux-x86_64
  Temporary files : /scratch/Schrodinger_Suites/pbeni001/Diethylstilbestrol_1#u01-0-58730269
  Maestro file (input):  Diethylstilbestrol_1.mae
  Maestro file (output): Diethylstilbestrol_1.01.mae
  
  basis set:             6-31g                           
  net molecular charge:    1
  multiplicity:            2
  
  Using up to  16 threads per process
  
  number of basis functions....          220
  
 Input geometry:
                                   angstroms
  atom               x                 y                 z
  C1            1.0705463000      0.1850684000      0.5460187000 
  C2            2.5137111000     -0.0124034000      0.1105374000 
  C3            2.9311368000     -1.1716174000     -0.8193061000 
  C4            2.1117588000     -1.9761769000     -1.5915926000 
  C5            2.5105161000     -3.1200296000     -2.5527336000 
  C6            3.9376500000     -3.3109922000     -3.0337553000 
  C7            0.5916889000     -1.8456412000     -1.6485255000 
  C8           -0.2758660000     -2.9291173000     -1.3755423000 
  C9           -1.6766336000     -2.7688168000     -1.3780082000 
  C10          -2.2172830000     -1.5010252000     -1.4802193000 
  C11          -1.3826412000     -0.4177515000     -1.7094152000 
  C12          -0.0212241000     -0.6341591000     -1.9741883000 
  O13          -3.5515050000     -1.2532707000     -1.3776007000 
  C14           4.4565103000     -1.2790850000     -0.8068576000 
  C15           5.2855139000     -0.1948625000     -1.1511362000 
  C16           6.6350719000     -0.3772164000     -1.5128184000 
  C17           7.1680211000     -1.6609806000     -1.5152493000 
  C18           6.4302045000     -2.7025074000     -0.9884191000 
  C19           5.1088912000     -2.4926737000     -0.5440600000 
  O20           8.3978322000     -1.9351652000     -2.0354208000 
  H21           0.9752812000      0.8616773000      1.3960628000 
  H22           0.5834732000     -0.7598986000      0.8014694000 
  H23           0.5301885000      0.7197395000     -0.2313266000 
  H24           3.0889613000     -0.1038088000      1.0405412000 
  H25           2.8220886000      0.9288510000     -0.3637476000 
  H26           1.9171661000     -3.0104204000     -3.4709066000 
  H27           2.2054849000     -4.0696362000     -2.0930502000 
  H28           4.4139528000     -2.3618424000     -3.2939830000 
  H29           4.0057893000     -3.9732293000     -3.8983961000 
  H30           4.4974484000     -3.8567768000     -2.2784781000 
  H31           0.1235017000     -3.9104352000     -1.1401544000 
  H32          -2.3203938000     -3.6359443000     -1.2408668000 
  H33          -1.7769108000      0.5902327000     -1.6365416000 
  H34           0.5856530000      0.2179064000     -2.2782277000 
  H35          -4.0344346000     -2.0751919000     -1.5721723000 
  H36           4.8901441000      0.8182980000     -1.1937693000 
  H37           7.2248589000      0.4703181000     -1.8395873000 
  H38           6.8359039000     -3.7147615000     -1.0171200000 
  H39           4.5438072000     -3.3418067000     -0.1723219000 
  H40           8.8085028000     -1.1137377000     -2.3477343000 
   
  principal moments of inertia:
        amu*angstrom^2:      539.59472     3261.62434     3572.55870
                g*cm^2: 8.96018008E-38 5.41605397E-37 5.93237256E-37
   
  rotational constants:
               cm^(-1):      0.03124128      0.00516848      0.00471864
                   GHz:      0.93658997      0.15494703      0.14146136
   
  Molecular weight:     268.15 amu
   
  Stoichiometry: C18H20O2
  Molecular Point Group: C1      
  Point Group used: C1
  
 
Number of optimization coordinates:   131
Number of independent coordinates:    131
Number of non-redundant coordinates:  114
Number of frozen coordinates:           0
Number of harmonic constraints:         0
 
Number of geometric degrees of freedom:   114
Maximum geometric degrees of freedom:     114
 " " " " " excluding dummy atoms:         114
 
  nuclear repulsion energy.......    1475.192702391 hartrees
 
 Non-default options chosen:
   SCF calculation type: UDFT(b3lyp)                 
   UDFT=Becke_3_Parameter/HF+Slater+Becke88+VWN+LYP (B3LYP)
   Geometry will be optimized in redundant internal coordinates
   Electrostatic potential fit to point charges on atomic centers
   Electrostatic potential fitting constrained to reproduce
     total charge:                yes
     dipole moment:               yes
     traceless quadrupole moment: no 
     traceless octapole moment:   no 
  
 Temporary integer options set:
     73=  2
  
  Peak memory usage:   4803 Mb
  
  end of program pre
   
 Time(pre)  user:        7.4  user+sys:        7.4  wallclock:        1.1
  
  start of program onee
  
  smallest eigenvalue of S:    6.797E-04
  number of canonical orbitals.....          220
  Peak memory usage:   4838 Mb
  
  end of program onee
   
 Time(onee)  user:        2.7  user+sys:        2.7  wallclock:        0.5
  
  start of program hfig
  
  initial wavefunction generated automatically from atomic wavefunctions
  
  -------------------
  Alpha orbital space
  -------------------
 
  Irreducible     Total no   No of occupied orbitals 
  representation  orbitals   Shell_1  Shell_2    ...
  No Symm          220         72
  ------------------------
  Orbital occupation/shell    1.000
 
  ------------------
  Beta orbital space
  ------------------
 
  Irreducible     Total no   No of occupied orbitals 
  representation  orbitals   Shell_1  Shell_2    ...
  No Symm          220         71
  ------------------------
  Orbital occupation/shell    1.000
 
  
  
    Unrestricted Spin Properties ...
    Sz*(Sz+1) ..............     0.750
    <S**2> of initial guess      0.750
  
  
  Peak memory usage:   4756 Mb
  
  end of program hfig
   
 Time(hfig)  user:        3.5  user+sys:        3.5  wallclock:        0.6
  
  start of program probe
  
  Peak memory usage:   4756 Mb
  
  end of program probe
   
 Time(probe)  user:        2.5  user+sys:        2.5  wallclock:        0.5
  
  start of program grid
  
   grid     grid set  grid #  grid sym
  ------    --------  ------  --------
  coarse        0        0        1
  medium        2        1        1
  fine          0        0        1
  ultrafine     4        2        1
  charge       -1        3        1
  gradient      4        2        1
  density       0        0        1
  DFT-fine    -11        4        1
  DFT-med.    -10        5        1
  DFT-grad    -12        6        1
  DFT-der2      0        0        1
  DFT-cphf      0        0        1
  LMP2-enrg     4        2        1
  LMP2-grad     2        1        1
  DFT-cphf2     0        0        1
  PBF-dens      0        0        1
  plotting      0        0        1
  Rel-grad    -17        0        1
  
  number of gridpoints: 
     atom        C1       C2       C3       C4       C5       C6       C7
  grid # 1       79       86       99       99       87       78       96
  grid # 2      263      288      373      371      287      264      357
  grid # 3        6        6       77       74        6        6       21
  grid # 4     4304     4304     4304     4304     4304     4304     4304
  grid # 5     1192     1192     1192     1192     1192     1192     1192
  grid # 6     5226     5226     5226     5226     5226     5226     5226
   
  number of gridpoints: 
     atom        C8       C9      C10      C11      C12      O13      C14
  grid # 1       95       96       95       96       95      114      100
  grid # 2      332      335      349      333      332      427      356
  grid # 3      100      202      181      147      120      820       34
  grid # 4     4304     4304     4304     4304     4304     4304     4304
  grid # 5     1192     1192     1192     1192     1192     1192     1192
  grid # 6     5226     5226     5226     5226     5226     5226     5226
   
  number of gridpoints: 
     atom       C15      C16      C17      C18      C19      O20      H21
  grid # 1       95       96      100       96       95      114      111
  grid # 2      333      337      356      335      331      426      438
  grid # 3      132      184      169      144      132      801     1105
  grid # 4     4304     4304     4304     4304     4304     4304     4304
  grid # 5     1192     1192     1192     1192     1192     1192     1192
  grid # 6     5226     5226     5226     5226     5226     5226     5226
   
  number of gridpoints: 
     atom       H22      H23      H24      H25      H26      H27      H28
  grid # 1      109      103      109      105      109      105      108
  grid # 2      431      410      433      421      432      423      431
  grid # 3      750      366      851      563      827      593      697
  grid # 4     4304     4304     4304     4304     4304     4304     4304
  grid # 5     1192     1192     1192     1192     1192     1192     1192
  grid # 6     5226     5226     5226     5226     5226     5226     5226
   
  number of gridpoints: 
     atom       H29      H30      H31      H32      H33      H34      H35
  grid # 1      110      102      112      117      115      112      114
  grid # 2      438      409      435      443      444      432      443
  grid # 3     1105      366      871     1152     1112      811     1282
  grid # 4     4304     4304     4304     4304     4304     4304     4304
  grid # 5     1192     1192     1192     1192     1192     1192     1192
  grid # 6     5226     5226     5226     5226     5226     5226     5226
   
  number of gridpoints: 
     atom       H36      H37      H38      H39      H40    total
  grid # 1      113      116      116      111      112     4120
  grid # 2      432      441      444      436      447    15448
  grid # 3      869     1130     1105      865     1269    21051
  grid # 4     4304     4304     4304     4304     4304   172160
  grid # 5     1192     1192     1192     1192     1192    47680
  grid # 6     5226     5226     5226     5226     5226   209040
   
  Peak memory usage:   4788 Mb
  
  end of program grid
   
 Time(grid)  user:       24.1  user+sys:       24.1  wallclock:        2.4
  
  start of program rwr
  
  Peak memory usage:   4745 Mb
  
  end of program rwr
   
 Time(rwr)  user:       44.3  user+sys:       44.3  wallclock:        4.3
  
  start of program scf
  
 number of electrons..........        143
 number of alpha electrons....         72
 number of beta electrons.....         71
 number of alpha orbitals.....        220
 number of beta orbitals......        220
 number of alpha occupied orb..        72
 number of alpha virtual orb...       148
 number of beta occupied orb...        71
 number of beta virtual orb....       149
 SCF type: UDFT=Becke_3_Parameter/HF+Slater+Becke88+VWN+LYP (B3LYP)
 Energy computed with NOPS off.
  
       i  u  d  i  g                   
       t  p  i  c  r                                 RMS    maximum
       e  d  i  u  i                       energy  density   DIIS  
       r  t  s  t  d       total energy    change  change    error 
  
etot    1  N  N  5  M    -845.30628225316           9.4E-03  1.0E-01
etot    2  Y  Y  6  M    -846.94353375628  1.6E+00  8.5E-03  2.1E-01
etot    3  Y  Y  6  M    -846.82868326804 -1.1E-01  6.2E-03  1.5E-01
etot    4  N  Y  2  U    -847.70670113460  8.8E-01  4.8E-03  3.2E-02
etot    5  Y  Y  6  M    -847.74933387986  4.3E-02  3.0E-03  2.7E-02
etot    6  N  Y  2  U    -847.83457094360  8.5E-02  1.9E-03  2.4E-02
etot    7  Y  Y  6  M    -847.83856752857  4.0E-03  1.0E-03  2.4E-02
etot    8  N  Y  2  U    -847.85257359408  1.4E-02  2.1E-04  3.3E-03
etot    9  Y  Y  6  M    -847.85314278105  5.7E-04  6.6E-05  1.2E-03
etot   10  Y  Y  6  M    -847.85327439219  1.3E-04  3.1E-05  5.4E-04
etot   11  N  Y  2  U    -847.85329902785  2.5E-05  2.8E-05  4.8E-04
etot   12  N  Y  2  U    -847.85331302446  1.4E-05  1.2E-05  1.8E-04
etot   13  N  Y  2  U    -847.85331494829  1.9E-06  4.9E-06  1.1E-04
etot   14  N  N  2  U    -847.85331557419  6.3E-07  0.0E+00  0.0E+00
  
  
 Energy components, in hartrees:
   (A)  Nuclear repulsion............    1475.19270239100
   (E)  Total one-electron terms.....   -4059.04175771557
   (I)  Total two-electron terms.....    1735.99573975038
   (L)  Electronic energy............   -2323.04601796519  (E+I)
   (N)  Total energy.................    -847.85331557419  (A+L)
   (O)  Gas phase energy.............    -847.85331557419
  
                                 Total             Coulomb       Exchange+Corr.
 Total two-electron terms    1735.99573975038    1858.06070319695    -122.06496344657
   Hamiltonian  1........     891.81059576171     935.29562959268     -43.48503383097
   Hamiltonian  2........     879.68721692146     922.76507360427     -43.07785668280
  
 SCFE: SCF energy: UDFT(b3lyp)      -847.85331557419 hartrees   iterations:  14
  
 
 Alpha HOMO energy:    -0.35870
 Alpha LUMO energy:    -0.16322
 
  Alpha Orbital energies (hartrees): 
   -19.31951   -19.31394   -10.39802   -10.39316   -10.36675   -10.36613
   -10.35130   -10.34807   -10.33922   -10.33627   -10.33277   -10.33054
   -10.32938   -10.32693   -10.32474   -10.32149   -10.31415   -10.31390
   -10.27913   -10.27811    -1.21758    -1.21370    -1.01493    -1.00576
    -0.96301    -0.91744    -0.89658    -0.89198    -0.88614    -0.87977
    -0.84645    -0.78962    -0.77346    -0.76417    -0.74655    -0.73838
    -0.73268    -0.69134    -0.68678    -0.66914    -0.63289    -0.61785
    -0.60697    -0.60556    -0.58843    -0.58346    -0.57906    -0.57339
    -0.56521    -0.56346    -0.55454    -0.55111    -0.54484    -0.53904
    -0.53452    -0.51445    -0.50839    -0.50168    -0.49171    -0.48612
    -0.48194    -0.47887    -0.47586    -0.47249    -0.46092    -0.44577
    -0.43986    -0.40146    -0.38415    -0.38162    -0.36703    -0.35870
    -0.16322    -0.14699    -0.14529    -0.13702    -0.10756    -0.05509
    -0.05176    -0.03970    -0.03226    -0.02378
 
 
 Beta HOMO energy:    -0.34532
 Beta LUMO energy:    -0.31268
 
  Beta Orbital energies (hartrees): 
   -19.31711   -19.31169   -10.39662   -10.39181   -10.36491   -10.36418
   -10.34948   -10.34648   -10.33863   -10.33565   -10.33273   -10.33040
   -10.32932   -10.32679   -10.32411   -10.32089   -10.31416   -10.31390
   -10.27903   -10.27801    -1.21253    -1.20894    -1.01069    -1.00225
    -0.95815    -0.91418    -0.89451    -0.89041    -0.88417    -0.87646
    -0.84252    -0.78764    -0.77137    -0.76199    -0.74475    -0.73666
    -0.73024    -0.68997    -0.68547    -0.66714    -0.63102    -0.61552
    -0.60496    -0.60355    -0.58708    -0.58175    -0.57736    -0.57206
    -0.56258    -0.56038    -0.54864    -0.54648    -0.54084    -0.53536
    -0.53319    -0.51220    -0.50640    -0.49743    -0.48824    -0.48076
    -0.47915    -0.47537    -0.47446    -0.47008    -0.45919    -0.43975
    -0.43550    -0.38575    -0.38083    -0.37869    -0.34532    -0.31268
    -0.15191    -0.14150    -0.13969    -0.12556    -0.09464    -0.05408
    -0.05071    -0.03882    -0.03136
 
  
  
    Unrestricted Spin Properties ...
    Sz*(Sz+1)      0.750
    <S**2> ...     0.754
  
  
  Peak memory usage:   6748 Mb
  
  end of program scf
   
 Time(scf)  user:      206.5  user+sys:      206.5  wallclock:       14.4
  
  start of program der1a
  
  Peak memory usage:   4838 Mb
  
  end of program der1a
   
 Time(der1a)  user:        2.1  user+sys:        2.1  wallclock:        0.4
  
  start of program rwr
  
  Peak memory usage:   4745 Mb
  
  end of program rwr
   
 Time(rwr)  user:       30.3  user+sys:       30.3  wallclock:        4.2
  
  start of program der1b
  
   
  forces (hartrees/bohr) : total     
   
 atom  label           x              y              z
 ---- --------   -------------  -------------  -------------
    1 C1         -1.090496E-02   7.271636E-03  -1.704101E-03
    2 C2         -6.926928E-04   8.985740E-05   3.814497E-03
    3 C3          2.157004E-02   1.807650E-02   1.130673E-02
    4 C4         -2.032298E-02  -1.649171E-02  -1.252065E-02
    5 C5         -2.202884E-04  -1.685516E-05  -4.447152E-03
    6 C6          1.118366E-02  -7.914507E-03   2.330894E-03
    7 C7          2.261650E-02  -4.576631E-04   3.742920E-03
    8 C8         -1.495135E-02  -1.272180E-02  -2.604848E-03
    9 C9          2.512849E-02  -2.676546E-02   4.241320E-03
   10 C10        -3.936846E-03   9.168094E-03  -9.763294E-04
   11 C11         2.329782E-02   1.616003E-02  -1.189737E-02
   12 C12        -1.494533E-02   2.809240E-02   1.275855E-02
   13 O13        -1.882970E-03  -1.198199E-03  -3.813759E-03
   14 C14        -2.619281E-02  -1.121451E-02   4.663354E-04
   15 C15         1.798066E-02   2.144976E-02  -8.110076E-03
   16 C16        -2.705330E-02   1.756556E-02   5.431503E-03
   17 C17         9.282571E-03   1.896683E-03  -3.822540E-03
   18 C18        -2.328634E-02  -2.558985E-02   1.991779E-02
   19 C19         1.805353E-02  -1.871872E-02  -1.653106E-02
   20 O20        -2.973278E-03  -3.096610E-03   4.428465E-03
   21 H21         9.019400E-03  -2.229095E-03   7.960226E-03
   22 H22        -2.867675E-03   3.066979E-03  -1.052340E-03
   23 H23        -6.509669E-03  -6.173817E-03   1.048016E-03
   24 H24         6.890380E-03  -1.694636E-03  -4.917807E-03
   25 H25         6.083286E-03   7.589679E-04   6.867122E-04
   26 H26        -6.983830E-03   1.964203E-03   6.481743E-03
   27 H27        -6.010439E-03  -8.318218E-04  -1.576305E-04
   28 H28         3.293326E-03  -2.714028E-03   1.327334E-03
   29 H29        -9.141116E-03   2.185913E-03  -6.928327E-03
   30 H30         6.802397E-03   6.117505E-03  -1.634373E-03
   31 H31         1.974786E-04   8.633567E-04  -1.240765E-03
   32 H32         2.476896E-03   1.119579E-03   2.576544E-03
   33 H33        -2.798381E-03  -1.472627E-03  -1.015895E-02
   34 H34        -1.766779E-03  -3.683912E-03   1.358695E-03
   35 H35        -1.313988E-02  -2.371058E-03   5.099187E-03
   36 H36        -9.445387E-04  -3.701462E-03  -3.099987E-03
   37 H37        -6.411856E-05   2.134875E-03  -6.244471E-05
   38 H38         1.640971E-03   5.847181E-03   5.656552E-03
   39 H39         1.228915E-03   1.673501E-03   7.882905E-04
   40 H40         1.100413E-02   3.701415E-03  -5.851824E-03
 -------------   -------------  -------------  -------------
     total        1.608831E-04   1.456410E-04  -1.100272E-04
   
  Peak memory usage:   6742 Mb
  
  end of program der1b
   
 Time(der1b)  user:       46.5  user+sys:       46.5  wallclock:        3.6
  
  start of program geopt
  
 ----------------------------------------------------------------------------
  Geometry optimization step  1
  Total energy:      -847.85331557419 hartrees
 ----------------------------------------------------------------------------
  
  
  Level shifts adjusted to satisfy step-size constraints
   Step size:    0.3000198
   Cos(theta):   0.9057029
   Final level shift:  -2.5222536E-01
  
  gradient maximum:        5.0609E-02 .  (  4.5000E-04 )
  gradient rms:            1.4387E-02 .  (  3.0000E-04 )
  displacement maximum:    7.1259E-02 .  (  1.8000E-03 )
  displacement rms:        2.6210E-02 .  (  1.2000E-03 )
  
  predicted energy change:  -3.3720E-02
  step size:     0.29999
  trust radius:  0.30000
  
  molecular structure not yet converged...
  
  center of mass moved by:
     x:     1.0694E-03     y:     3.7738E-03     z:    -3.9575E-03
  
  new geometry: 
                                   angstroms
  atom               x                 y                 z
  C1            1.2387793483      0.1847759709      0.7875464147 
  C2            2.6198320378     -0.0314347085      0.1565174703 
  C3            2.9428166520     -1.1636954958     -0.8450630291 
  C4            2.0896235118     -1.9670053500     -1.6011314717 
  C5            2.3877576353     -3.1024106105     -2.6092457952 
  C6            3.7559514317     -3.3328709764     -3.2588474299 
  C7            0.5922217336     -1.8235539996     -1.6467803529 
  C8           -0.2480898324     -2.9076076537     -1.2758575147 
  C9           -1.6371458545     -2.7941048056     -1.3138965471 
  C10          -2.2232737819     -1.5530830194     -1.6116736866 
  C11          -1.4084874302     -0.4654780095     -1.9702953847 
  C12          -0.0408416151     -0.6578964925     -2.1317485057 
  O13          -3.5749422522     -1.3276093244     -1.5433483722 
  C14           4.4442065639     -1.2811575681     -0.8220097605 
  C15           5.2527282392     -0.1769053663     -1.2000923860 
  C16           6.6048269490     -0.3353266461     -1.4946452116 
  C17           7.1873743756     -1.6128042272     -1.3816598107 
  C18           6.4553227556     -2.6644305170     -0.8158556079 
  C19           5.1191527636     -2.4750577935     -0.4722608705 
  O20           8.4556626942     -1.8920834736     -1.8153629489 
  H21           1.3124904900      0.8426861435      1.6587817201 
  H22           0.7591253842     -0.7483378838      1.0900809816 
  H23           0.5851487179      0.7296643400      0.1108088376 
  H24           3.3068401773     -0.1785684045      0.9989964103 
  H25           2.9200291463      0.9176007836     -0.3117957506 
  H26           1.7051600503     -2.9374242902     -3.4525267320 
  H27           2.0776877239     -4.0504697425     -2.1447148230 
  H28           4.2391331740     -2.4015975027     -3.5626552161 
  H29           3.6574313552     -3.9640105664     -4.1475494624 
  H30           4.4107462412     -3.8930738140     -2.5965854762 
  H31           0.1800385114     -3.8547286316     -0.9665041002 
  H32          -2.2508602980     -3.6589616192     -1.0759786883 
  H33          -1.8497285407      0.5170294527     -2.0918979057 
  H34           0.5543940001      0.1478392996     -2.5500492586 
  H35          -4.0777192392     -2.1658446413     -1.5792575079 
  H36           4.8247524510      0.8163182013     -1.2960773136 
  H37           7.1785633076      0.5139185410     -1.8491962428 
  H38           6.9105660914     -3.6473569339     -0.7320467937 
  H39           4.5665691840     -3.3048402071     -0.0463347561 
  H40           8.8978875552     -1.0988730191     -2.1746220744 
   
  nuclear repulsion energy.......    1461.996588497 hartrees
  -------------------------------------------------
 /  end of geometry optimization iteration   1   /
 -------------------------------------------------
   
  Peak memory usage:   4726 Mb
  
  end of program geopt
   
 Time(geopt)  user:        6.9  user+sys:        6.9  wallclock:        0.6
  
  start of program onee
  
  smallest eigenvalue of S:    6.776E-04
  number of canonical orbitals.....          220
  Peak memory usage:   4838 Mb
  
  end of program onee
   
 Time(onee)  user:        3.0  user+sys:        3.0  wallclock:        0.5
  
  start of program probe
  
  Peak memory usage:   4756 Mb
  
  end of program probe
   
 Time(probe)  user:        2.3  user+sys:        2.3  wallclock:        0.4
  
  start of program grid
  
   grid     grid set  grid #  grid sym
  ------    --------  ------  --------
  coarse        0        0        1
  medium        2        1        1
  fine          0        0        1
  ultrafine     4        2        1
  charge       -1        3        1
  gradient      4        2        1
  density       0        0        1
  DFT-fine    -11        4        1
  DFT-med.    -10        5        1
  DFT-grad    -12        6        1
  DFT-der2      0        0        1
  DFT-cphf      0        0        1
  LMP2-enrg     4        2        1
  LMP2-grad     2        1        1
  DFT-cphf2     0        0        1
  PBF-dens      0        0        1
  plotting      0        0        1
  Rel-grad    -17        0        1
  
  number of gridpoints: 
     atom        C1       C2       C3       C4       C5       C6       C7
  grid # 1       78       87       99       99       87       78      100
  grid # 2      266      285      371      371      285      266      354
  grid # 3        6        6       74       64        6        6       16
  grid # 4     4304     4304     4304     4304     4304     4304     4304
  grid # 5     1192     1192     1192     1192     1192     1192     1192
  grid # 6     5226     5226     5226     5226     5226     5226     5226
   
  number of gridpoints: 
     atom        C8       C9      C10      C11      C12      O13      C14
  grid # 1       95       96       98       96       95      114      100
  grid # 2      335      334      355      333      336      429      356
  grid # 3       95      197      196      158       91      812       20
  grid # 4     4304     4304     4304     4304     4304     4304     4304
  grid # 5     1192     1192     1192     1192     1192     1192     1192
  grid # 6     5226     5226     5226     5226     5226     5226     5226
   
  number of gridpoints: 
     atom       C15      C16      C17      C18      C19      O20      H21
  grid # 1       95       96       98       96       96      114      110
  grid # 2      336      335      354      336      335      423      439
  grid # 3      117      191      191      150      110      795     1110
  grid # 4     4304     4304     4304     4304     4304     4304     4304
  grid # 5     1192     1192     1192     1192     1192     1192     1192
  grid # 6     5226     5226     5226     5226     5226     5226     5226
   
  number of gridpoints: 
     atom       H22      H23      H24      H25      H26      H27      H28
  grid # 1      110      106      107      105      107      105      108
  grid # 2      434      422      430      419      432      421      433
  grid # 3      850      584      776      569      745      598      804
  grid # 4     4304     4304     4304     4304     4304     4304     4304
  grid # 5     1192     1192     1192     1192     1192     1192     1192
  grid # 6     5226     5226     5226     5226     5226     5226     5226
   
  number of gridpoints: 
     atom       H29      H30      H31      H32      H33      H34      H35
  grid # 1      108      106      112      117      117      115      114
  grid # 2      438      421      436      443      449      442      449
  grid # 3     1106      553      851     1158     1184      914     1318
  grid # 4     4304     4304     4304     4304     4304     4304     4304
  grid # 5     1192     1192     1192     1192     1192     1192     1192
  grid # 6     5226     5226     5226     5226     5226     5226     5226
   
  number of gridpoints: 
     atom       H36      H37      H38      H39      H40    total
  grid # 1      111      117      117      115      114     4138
  grid # 2      433      442      446      440      450    15514
  grid # 3      842     1141     1161      915     1300    21780
  grid # 4     4304     4304     4304     4304     4304   172160
  grid # 5     1192     1192     1192     1192     1192    47680
  grid # 6     5226     5226     5226     5226     5226   209040
   
  Peak memory usage:   4788 Mb
  
  end of program grid
   
 Time(grid)  user:       22.9  user+sys:       22.9  wallclock:        1.9
  
  start of program rwr
  
  Peak memory usage:   4745 Mb
  
  end of program rwr
   
 Time(rwr)  user:       42.4  user+sys:       42.4  wallclock:        3.9
  
  start of program scf
  
 Energy computed with NOPS off.
  
       i  u  d  i  g                   
       t  p  i  c  r                                 RMS    maximum
       e  d  i  u  i                       energy  density   DIIS  
       r  t  s  t  d       total energy    change  change    error 
  
etot    1  N  N  2  U    -847.80666437134           1.6E-03  1.8E-02
etot    2  Y  Y  6  M    -847.87249968992  6.6E-02  5.3E-04  3.1E-03
etot    3  N  Y  2  U    -847.86943001050 -3.1E-03  4.4E-04  8.2E-03
etot    4  Y  Y  6  M    -847.87375433894  4.3E-03  1.7E-04  2.4E-03
etot    5  Y  Y  6  M    -847.87392749441  1.7E-04  1.2E-04  2.2E-03
etot    6  N  Y  2  U    -847.87390581735 -2.2E-05  4.9E-05  1.5E-03
etot    7  N  Y  2  U    -847.87395374273  4.8E-05  1.2E-05  1.1E-04
etot    8  N  Y  2  U    -847.87395453325  7.9E-07  6.0E-06  5.5E-05
etot    9  N  Y  2  U    -847.87395472795  1.9E-07  2.6E-06  2.4E-05
etot   10  N  N  2  U    -847.87395477829  5.0E-08  0.0E+00  0.0E+00
  
  
 Energy components, in hartrees:
   (A)  Nuclear repulsion............    1461.99658849660
   (E)  Total one-electron terms.....   -4032.98845401968
   (I)  Total two-electron terms.....    1723.11791074479
   (L)  Electronic energy............   -2309.87054327489  (E+I)
   (N)  Total energy.................    -847.87395477829  (A+L)
   (O)  Gas phase energy.............    -847.87395477829
  
                                 Total             Coulomb       Exchange+Corr.
 Total two-electron terms    1723.11791074479    1845.10924559733    -121.99133485254
   Hamiltonian  1........     885.33130817308     928.78957320573     -43.45826503265
   Hamiltonian  2........     873.26903625584     916.31967239161     -43.05063613576
  
 SCFE: SCF energy: UDFT(b3lyp)      -847.87395477829 hartrees   iterations:  10
  
 
 Alpha HOMO energy:    -0.35514
 Alpha LUMO energy:    -0.16092
 
  Alpha Orbital energies (hartrees): 
   -19.32128   -19.31268   -10.40332   -10.39632   -10.36193   -10.36143
   -10.35196   -10.34633   -10.33814   -10.33250   -10.33227   -10.33190
   -10.32759   -10.32708   -10.32655   -10.32235   -10.31368   -10.31285
   -10.27976   -10.27803    -1.21322    -1.20429    -1.01219    -1.00246
    -0.95863    -0.91801    -0.89561    -0.89074    -0.88180    -0.87329
    -0.83931    -0.79309    -0.76901    -0.75802    -0.74501    -0.73878
    -0.73221    -0.69094    -0.68439    -0.66884    -0.63100    -0.61711
    -0.60579    -0.59906    -0.58369    -0.57876    -0.57392    -0.57058
    -0.56479    -0.56143    -0.55435    -0.54818    -0.54510    -0.53703
    -0.52886    -0.51262    -0.50594    -0.49953    -0.48550    -0.48230
    -0.47965    -0.47686    -0.47335    -0.46983    -0.45513    -0.44860
    -0.44163    -0.39582    -0.39102    -0.38707    -0.36211    -0.35514
    -0.16092    -0.14342    -0.14034    -0.13924    -0.11269    -0.05778
    -0.05251    -0.03498    -0.02644    -0.02216
 
 
 Beta HOMO energy:    -0.33957
 Beta LUMO energy:    -0.30952
 
  Beta Orbital energies (hartrees): 
   -19.31882   -19.31046   -10.40177   -10.39492   -10.36031   -10.35961
   -10.34996   -10.34470   -10.33757   -10.33229   -10.33197   -10.33177
   -10.32755   -10.32641   -10.32641   -10.32176   -10.31365   -10.31280
   -10.27960   -10.27787    -1.20796    -1.19953    -1.00793    -0.99890
    -0.95406    -0.91453    -0.89426    -0.88946    -0.87902    -0.87001
    -0.83546    -0.79102    -0.76684    -0.75582    -0.74308    -0.73696
    -0.72978    -0.68952    -0.68311    -0.66689    -0.62909    -0.61476
    -0.60388    -0.59708    -0.58213    -0.57688    -0.57257    -0.56957
    -0.56319    -0.55999    -0.54784    -0.54390    -0.53868    -0.53219
    -0.52776    -0.51037    -0.50380    -0.49487    -0.48230    -0.47855
    -0.47523    -0.47418    -0.47162    -0.46763    -0.45345    -0.44193
    -0.43736    -0.39067    -0.38580    -0.37704    -0.33957    -0.30952
    -0.14981    -0.13703    -0.13516    -0.12778    -0.09977    -0.05676
    -0.05152    -0.03409    -0.02509
 
  
  
    Unrestricted Spin Properties ...
    Sz*(Sz+1)      0.750
    <S**2> ...     0.754
  
  
  Peak memory usage:   6748 Mb
  
  end of program scf
   
 Time(scf)  user:      180.2  user+sys:      180.2  wallclock:       12.9
  
  start of program der1a
  
  Peak memory usage:   4838 Mb
  
  end of program der1a
   
 Time(der1a)  user:        2.3  user+sys:        2.3  wallclock:        0.5
  
  start of program rwr
  
  Peak memory usage:   4745 Mb
  
  end of program rwr
   
 Time(rwr)  user:       31.2  user+sys:       31.2  wallclock:        4.3
  
  start of program der1b
  
   
  forces (hartrees/bohr) : total     
   
 atom  label           x              y              z
 ---- --------   -------------  -------------  -------------
    1 C1         -6.952398E-03   3.770690E-03  -6.721704E-03
    2 C2         -6.693564E-03   2.677682E-03   4.531019E-03
    3 C3          7.463070E-03   2.872725E-03   7.947851E-03
    4 C4         -5.314787E-03  -2.061464E-03  -5.206191E-03
    5 C5          7.999810E-03  -1.150887E-03  -5.550553E-03
    6 C6          7.427159E-03  -2.775555E-03   5.090203E-03
    7 C7          5.798185E-03   6.288017E-03   7.428889E-03
    8 C8         -4.941476E-03  -5.187437E-03  -4.597572E-03
    9 C9          6.799516E-03  -5.945119E-03   2.227153E-03
   10 C10        -1.727084E-03   3.237377E-03   2.922197E-03
   11 C11         3.849420E-03   3.108792E-03  -5.358819E-03
   12 C12        -2.804850E-04   1.413275E-02   1.558226E-02
   13 O13         4.837002E-03  -3.114958E-03  -5.342770E-03
   14 C14        -9.138788E-03  -1.287905E-02  -7.941836E-03
   15 C15         6.052417E-03   8.701422E-03  -1.835328E-03
   16 C16        -8.157115E-03   1.831083E-03   1.544008E-03
   17 C17         5.157030E-03   3.066591E-03  -3.121661E-03
   18 C18        -7.376716E-03  -9.808683E-03   6.282908E-03
   19 C19         2.080627E-03  -1.009379E-02  -1.583411E-02
   20 O20        -5.168920E-03   1.872439E-03   4.400257E-03
   21 H21         5.443160E-03  -3.521298E-03   3.196073E-03
   22 H22        -4.831092E-04  -1.438080E-04   4.762514E-04
   23 H23        -6.556064E-03  -3.593313E-03  -4.571027E-03
   24 H24         2.488474E-03  -1.621879E-05  -2.881733E-03
   25 H25         1.362415E-03   4.770010E-04   6.740271E-04
   26 H26        -3.623261E-03  -3.349311E-04   4.421911E-03
   27 H27        -2.652623E-03   1.285365E-04  -3.561239E-04
   28 H28         1.228703E-03   5.572147E-04   5.486144E-04
   29 H29        -5.022845E-03   2.036663E-03  -1.620130E-03
   30 H30         6.657702E-03   2.788893E-03   2.899749E-03
   31 H31         8.873551E-04   1.397752E-03   1.119644E-03
   32 H32        -8.679838E-05   1.818008E-03   1.883906E-03
   33 H33        -2.494601E-03  -2.702478E-03  -7.951789E-03
   34 H34         9.237300E-04   5.384906E-04   4.353372E-03
   35 H35        -4.862310E-03   8.570450E-04   4.563230E-03
   36 H36        -1.458158E-03  -2.953938E-03  -4.100362E-03
   37 H37         1.016020E-03  -3.388200E-05  -4.306522E-05
   38 H38         2.158740E-03   3.857644E-03   4.294741E-03
   39 H39        -1.234162E-03   2.256012E-05  -1.469426E-03
   40 H40         4.687774E-03   2.533684E-05  -2.035602E-03
 -------------   -------------  -------------  -------------
     total        9.304486E-05  -2.521030E-04  -1.515411E-04
   
  Peak memory usage:   6742 Mb
  
  end of program der1b
   
 Time(der1b)  user:       44.5  user+sys:       44.5  wallclock:        3.3
  
  start of program geopt
  
 ----------------------------------------------------------------------------
  Geometry optimization step  2
  Total energy:      -847.87395477829 hartrees
 ----------------------------------------------------------------------------
  
  
  Level shifts adjusted to satisfy step-size constraints
   Step size:    0.3000051
   Cos(theta):   0.6417508
   Final level shift:  -1.1734976E-01
  
  energy change:          -2.0639E-02 .  (  5.0000E-05 )
  gradient maximum:        5.4281E-02 .  (  4.5000E-04 )
  gradient rms:            1.1216E-02 .  (  3.0000E-04 )
  displacement maximum:    9.3859E-02 .  (  1.8000E-03 )
  displacement rms:        2.6209E-02 .  (  1.2000E-03 )
  
  predicted energy change:  -1.7637E-02
  step size:     0.29998
  trust radius:  0.30000
  
  molecular structure not yet converged...
  
  center of mass moved by:
     x:     1.1303E-03     y:     2.4389E-03     z:     3.0407E-03
  
  new geometry: 
                                   angstroms
  atom               x                 y                 z
  C1            1.1397233548      0.0859337601      0.7195233139 
  C2            2.5547447635     -0.0414234411      0.1136095674 
  C3            2.9335183454     -1.1577722473     -0.8856601729 
  C4            2.0954659488     -1.9622637197     -1.6224829643 
  C5            2.4421414288     -3.0937050562     -2.6160377858 
  C6            3.8496591150     -3.2598316927     -3.2319039065 
  C7            0.6193950830     -1.7856077909     -1.6153714767 
  C8           -0.2115749252     -2.8778909670     -1.2339525804 
  C9           -1.5890078319     -2.7621180996     -1.2409197775 
  C10          -2.1856479073     -1.5187661659     -1.5753946688 
  C11          -1.3763347145     -0.4198838962     -1.9603946370 
  C12          -0.0090994294     -0.5924055912     -2.0724727915 
  O13          -3.5380619045     -1.2825540140     -1.4762018845 
  C14           4.4094241340     -1.3124815047     -0.8959943720 
  C15           5.2207337563     -0.2036507428     -1.2900820970 
  C16           6.5669877205     -0.3680898607     -1.5503648743 
  C17           7.1573526248     -1.6480484462     -1.3795928127 
  C18           6.4106741032     -2.7101785867     -0.8122140796 
  C19           5.0696492240     -2.5238757502     -0.5414512480 
  O20           8.4460254839     -1.9395255565     -1.7431120572 
  H21           1.1912693740      0.7554732480      1.5864064659 
  H22           0.7228771171     -0.8725173261      1.0351804891 
  H23           0.4312341277      0.5430955884      0.0253915125 
  H24           3.2572812640     -0.1666278444      0.9456429373 
  H25           2.8268458761      0.9250851070     -0.3388952351 
  H26           1.7486494461     -2.9450382629     -3.4510641679 
  H27           2.1436896279     -4.0469428433     -2.1512375060 
  H28           4.2916778916     -2.3073552633     -3.5341959618 
  H29           3.7651087103     -3.8876150082     -4.1267967265 
  H30           4.5505187122     -3.7525095123     -2.5564303537 
  H31           0.2295643709     -3.8255719750     -0.9486638622 
  H32          -2.1985583938     -3.6175283423     -0.9685293597 
  H33          -1.8435360225      0.5360721971     -2.1620155705 
  H34           0.5952860562      0.2134543204     -2.4707884018 
  H35          -4.0828814588     -2.0968267423     -1.4162011249 
  H36           4.7835036378      0.7793094238     -1.4138171655 
  H37           7.1494473231      0.4723873669     -1.9149753394 
  H38           6.8895599354     -3.6680600555     -0.6554308761 
  H39           4.5008562441     -3.3401386098     -0.1122980722 
  H40           8.9396451601     -1.1744015855     -2.1100070322 
   
  nuclear repulsion energy.......    1471.436326126 hartrees
  -------------------------------------------------
 /  end of geometry optimization iteration   2   /
 -------------------------------------------------
   
  Peak memory usage:   4726 Mb
  
  end of program geopt
   
 Time(geopt)  user:        6.7  user+sys:        6.7  wallclock:        0.6
  
  start of program onee
  
  smallest eigenvalue of S:    6.644E-04
  number of canonical orbitals.....          220
  Peak memory usage:   4838 Mb
  
  end of program onee
   
 Time(onee)  user:        2.3  user+sys:        2.3  wallclock:        0.5
  
  start of program probe
  
  Peak memory usage:   4756 Mb
  
  end of program probe
   
 Time(probe)  user:        2.2  user+sys:        2.2  wallclock:        0.4
  
  start of program grid
  
   grid     grid set  grid #  grid sym
  ------    --------  ------  --------
  coarse        0        0        1
  medium        2        1        1
  fine          0        0        1
  ultrafine     4        2        1
  charge       -1        3        1
  gradient      4        2        1
  density       0        0        1
  DFT-fine    -11        4        1
  DFT-med.    -10        5        1
  DFT-grad    -12        6        1
  DFT-der2      0        0        1
  DFT-cphf      0        0        1
  LMP2-enrg     4        2        1
  LMP2-grad     2        1        1
  DFT-cphf2     0        0        1
  PBF-dens      0        0        1
  plotting      0        0        1
  Rel-grad    -17        0        1
  
  number of gridpoints: 
     atom        C1       C2       C3       C4       C5       C6       C7
  grid # 1       79       88       99       99       87       79      100
  grid # 2      270      291      367      364      291      267      356
  grid # 3        6        6       68       62        6        6       16
  grid # 4     4304     4304     4304     4304     4304     4304     4304
  grid # 5     1192     1192     1192     1192     1192     1192     1192
  grid # 6     5226     5226     5226     5226     5226     5226     5226
   
  number of gridpoints: 
     atom        C8       C9      C10      C11      C12      O13      C14
  grid # 1       95       96       97       96       95      114       98
  grid # 2      334      336      359      333      329      432      355
  grid # 3       81      187      205      137       90      794       18
  grid # 4     4304     4304     4304     4304     4304     4304     4304
  grid # 5     1192     1192     1192     1192     1192     1192     1192
  grid # 6     5226     5226     5226     5226     5226     5226     5226
   
  number of gridpoints: 
     atom       C15      C16      C17      C18      C19      O20      H21
  grid # 1       95       96       96       96       96      114      110
  grid # 2      337      337      360      333      330      430      439
  grid # 3      109      183      189      139      101      775     1116
  grid # 4     4304     4304     4304     4304     4304     4304     4304
  grid # 5     1192     1192     1192     1192     1192     1192     1192
  grid # 6     5226     5226     5226     5226     5226     5226     5226
   
  number of gridpoints: 
     atom       H22      H23      H24      H25      H26      H27      H28
  grid # 1      108      103      108      106      107      105      110
  grid # 2      434      420      429      419      430      423      433
  grid # 3      816      515      799      598      772      623      774
  grid # 4     4304     4304     4304     4304     4304     4304     4304
  grid # 5     1192     1192     1192     1192     1192     1192     1192
  grid # 6     5226     5226     5226     5226     5226     5226     5226
   
  number of gridpoints: 
     atom       H29      H30      H31      H32      H33      H34      H35
  grid # 1      108      105      112      118      117      115      114
  grid # 2      443      420      436      444      449      436      450
  grid # 3     1117      497      834     1155     1198      883     1346
  grid # 4     4304     4304     4304     4304     4304     4304     4304
  grid # 5     1192     1192     1192     1192     1192     1192     1192
  grid # 6     5226     5226     5226     5226     5226     5226     5226
   
  number of gridpoints: 
     atom       H36      H37      H38      H39      H40    total
  grid # 1      111      117      117      114      114     4134
  grid # 2      432      444      447      440      450    15529
  grid # 3      838     1152     1174      893     1331    21609
  grid # 4     4304     4304     4304     4304     4304   172160
  grid # 5     1192     1192     1192     1192     1192    47680
  grid # 6     5226     5226     5226     5226     5226   209040
   
  Peak memory usage:   4788 Mb
  
  end of program grid
   
 Time(grid)  user:       20.8  user+sys:       20.8  wallclock:        2.0
  
  start of program rwr
  
  Peak memory usage:   4745 Mb
  
  end of program rwr
   
 Time(rwr)  user:       44.2  user+sys:       44.2  wallclock:        4.2
  
  start of program scf
  
 Energy computed with NOPS off.
  
       i  u  d  i  g                   
       t  p  i  c  r                                 RMS    maximum
       e  d  i  u  i                       energy  density   DIIS  
       r  t  s  t  d       total energy    change  change    error 
  
etot    1  N  N  2  U    -847.87520018776           7.7E-04  6.7E-03
etot    2  Y  Y  6  M    -847.88784666398  1.3E-02  3.9E-04  3.4E-03
etot    3  N  Y  2  U    -847.88629706332 -1.5E-03  2.9E-04  7.1E-03
etot    4  Y  Y  6  M    -847.88862512732  2.3E-03  4.6E-05  9.1E-04
etot    5  N  Y  2  U    -847.88855140865 -7.4E-05  3.6E-05  4.2E-04
etot    6  N  Y  2  U    -847.88854847588 -2.9E-06  2.5E-05  6.7E-04
etot    7  N  Y  2  U    -847.88855738588  8.9E-06  6.4E-06  8.3E-05
etot    8  N  Y  2  U    -847.88855785463  4.7E-07  4.0E-06  4.7E-05
etot    9  N  N  2  U    -847.88855809657  2.4E-07  0.0E+00  0.0E+00
  
  
 Energy components, in hartrees:
   (A)  Nuclear repulsion............    1471.43632612639
   (E)  Total one-electron terms.....   -4051.94457766020
   (I)  Total two-electron terms.....    1732.61969343725
   (L)  Electronic energy............   -2319.32488422296  (E+I)
   (N)  Total energy.................    -847.88855809657  (A+L)
   (O)  Gas phase energy.............    -847.88855809657
  
                                 Total             Coulomb       Exchange+Corr.
 Total two-electron terms    1732.61969343725    1854.61117655242    -121.99148311518
   Hamiltonian  1........     890.12691495308     933.58391693903     -43.45700198595
   Hamiltonian  2........     877.97489171112     921.02725961339     -43.05236790227
  
 SCFE: SCF energy: UDFT(b3lyp)      -847.88855809657 hartrees   iterations:   9
  
 
 Alpha HOMO energy:    -0.35221
 Alpha LUMO energy:    -0.16080
 
  Alpha Orbital energies (hartrees): 
   -19.32057   -19.31281   -10.40623   -10.40034   -10.35568   -10.35511
   -10.34932   -10.34403   -10.33712   -10.33207   -10.33182   -10.33157
   -10.32879   -10.32745   -10.32627   -10.32232   -10.31415   -10.31317
   -10.28099   -10.27923    -1.20951    -1.20009    -1.01266    -1.00066
    -0.96041    -0.91413    -0.89794    -0.89336    -0.88110    -0.86900
    -0.83847    -0.79213    -0.76750    -0.75606    -0.74768    -0.74165
    -0.73190    -0.69076    -0.68527    -0.67065    -0.63081    -0.61651
    -0.60470    -0.60143    -0.58206    -0.57689    -0.57290    -0.56909
    -0.56479    -0.56190    -0.55438    -0.54757    -0.54238    -0.53561
    -0.52766    -0.51098    -0.50439    -0.49778    -0.48694    -0.48016
    -0.47884    -0.47634    -0.47331    -0.46951    -0.46190    -0.45055
    -0.44168    -0.39840    -0.39263    -0.38890    -0.36031    -0.35221
    -0.16080    -0.14317    -0.13943    -0.13708    -0.11028    -0.05922
    -0.05430    -0.03482    -0.02512    -0.01856
 
 
 Beta HOMO energy:    -0.33865
 Beta LUMO energy:    -0.30600
 
  Beta Orbital energies (hartrees): 
   -19.31821   -19.31067   -10.40466   -10.39890   -10.35386   -10.35326
   -10.34739   -10.34241   -10.33658   -10.33202   -10.33168   -10.33112
   -10.32862   -10.32725   -10.32570   -10.32189   -10.31414   -10.31313
   -10.28087   -10.27909    -1.20443    -1.19546    -1.00819    -0.99717
    -0.95577    -0.91078    -0.89659    -0.89206    -0.87849    -0.86580
    -0.83459    -0.79003    -0.76527    -0.75386    -0.74587    -0.73998
    -0.72933    -0.68935    -0.68399    -0.66867    -0.62896    -0.61409
    -0.60273    -0.59917    -0.58048    -0.57504    -0.57177    -0.56816
    -0.56363    -0.56050    -0.54777    -0.54311    -0.53604    -0.53024
    -0.52639    -0.50882    -0.50230    -0.49228    -0.48517    -0.47803
    -0.47466    -0.47231    -0.47113    -0.46765    -0.46075    -0.44383
    -0.43752    -0.39234    -0.38836    -0.37845    -0.33865    -0.30600
    -0.14904    -0.13529    -0.13251    -0.12944    -0.09669    -0.05824
    -0.05337    -0.03401    -0.02408
 
  
  
    Unrestricted Spin Properties ...
    Sz*(Sz+1)      0.750
    <S**2> ...     0.754
  
  
  Peak memory usage:   6748 Mb
  
  end of program scf
   
 Time(scf)  user:      156.1  user+sys:      156.1  wallclock:       11.1
  
  start of program der1a
  
  Peak memory usage:   4838 Mb
  
  end of program der1a
   
 Time(der1a)  user:        1.8  user+sys:        1.8  wallclock:        0.5
  
  start of program rwr
  
  Peak memory usage:   4745 Mb
  
  end of program rwr
   
 Time(rwr)  user:       30.5  user+sys:       30.5  wallclock:        4.2
  
  start of program der1b
  
   
  forces (hartrees/bohr) : total     
   
 atom  label           x              y              z
 ---- --------   -------------  -------------  -------------
    1 C1          6.413059E-05   5.372924E-03  -3.678211E-03
    2 C2         -4.101829E-03   8.170662E-04  -1.233947E-03
    3 C3          8.973910E-03   6.360232E-03   1.251461E-02
    4 C4         -8.723835E-03  -5.830158E-03  -7.910817E-03
    5 C5          7.147039E-03   1.530037E-03   9.240649E-04
    6 C6         -1.128258E-03  -2.682858E-03   1.635550E-03
    7 C7         -1.279220E-03   1.463723E-03  -6.179675E-04
    8 C8          2.977188E-03   7.826458E-04  -8.714054E-03
    9 C9         -6.686607E-03   4.927100E-03  -1.176103E-03
   10 C10        -6.744508E-04   1.727099E-03   6.856664E-03
   11 C11        -6.976936E-03  -6.654452E-03  -2.766366E-03
   12 C12         4.623375E-03  -4.520408E-04   1.160386E-02
   13 O13         6.259430E-03  -3.414402E-03  -6.305764E-03
   14 C14         2.201952E-03  -3.157888E-03  -2.942770E-03
   15 C15        -4.080972E-03  -2.295096E-03   5.383459E-03
   16 C16         6.409748E-03  -5.943407E-03  -7.653613E-04
   17 C17         1.222816E-03   7.962177E-04  -4.619942E-04
   18 C18         5.062543E-03   4.777054E-03  -1.048202E-03
   19 C19        -6.110021E-03   5.453684E-04  -8.801938E-03
   20 O20        -3.507421E-03   4.295759E-03   2.734544E-03
   21 H21         1.236687E-03  -2.877893E-03   1.019698E-03
   22 H22         1.588631E-03  -1.071404E-03   1.904919E-03
   23 H23         9.320706E-04  -1.162205E-03   8.816221E-04
   24 H24        -4.496742E-04   6.485574E-04   6.106257E-04
   25 H25        -5.638530E-04   7.373689E-04   1.482567E-04
   26 H26        -8.025688E-04  -1.755870E-03   1.461438E-04
   27 H27        -1.834251E-04  -4.673728E-04  -1.136044E-03
   28 H28        -1.143720E-03   1.472170E-03  -6.982630E-04
   29 H29        -6.782274E-04   7.972694E-04   5.329687E-04
   30 H30        -1.208957E-03  -6.513984E-05  -1.594425E-03
   31 H31         1.151458E-03   9.897833E-04   1.732965E-03
   32 H32        -1.658522E-03   1.468037E-03   1.432520E-03
   33 H33        -1.793753E-03  -1.882227E-03  -4.401465E-03
   34 H34         1.517648E-03   1.006133E-03   2.613114E-03
   35 H35         1.680950E-03   2.135236E-03   3.035401E-03
   36 H36        -2.131829E-03  -1.039436E-03  -3.486105E-03
   37 H37         1.410106E-03  -1.240434E-03   5.932781E-05
   38 H38         2.297231E-03   1.196099E-03   2.610158E-03
   39 H39        -1.808659E-03  -6.594967E-05  -1.236823E-03
   40 H40        -9.618290E-04  -2.089688E-03   7.472944E-04
 -------------   -------------  -------------  -------------
     total        1.023465E-04  -3.020399E-04   1.511423E-04
   
  Peak memory usage:   6742 Mb
  
  end of program der1b
   
 Time(der1b)  user:       44.4  user+sys:       44.4  wallclock:        3.3
  
  start of program geopt
  
 ----------------------------------------------------------------------------
  Geometry optimization step  3
  Total energy:      -847.88855809657 hartrees
 ----------------------------------------------------------------------------
  
  
  Level shifts adjusted to satisfy step-size constraints
   Step size:    0.3000106
   Cos(theta):   0.8018046
   Final level shift:  -5.9336852E-02
  
  energy change:          -1.4603E-02 .  (  5.0000E-05 )
  gradient maximum:        1.0648E-02 .  (  4.5000E-04 )
  gradient rms:            3.5669E-03 .  (  3.0000E-04 )
  displacement maximum:    9.1979E-02 .  (  1.8000E-03 )
  displacement rms:        2.6210E-02 .  (  1.2000E-03 )
  
  predicted energy change:  -7.5801E-03
  step size:     0.29999
  trust radius:  0.30000
  
  molecular structure not yet converged...
  
  center of mass moved by:
     x:     3.1293E-03     y:     2.4314E-03     z:     4.7509E-03
  
  new geometry: 
                                   angstroms
  atom               x                 y                 z
  C1            1.1929017865      0.0456263254      0.7590526414 
  C2            2.5659859051     -0.0297533161      0.0680922733 
  C3            2.9382816281     -1.1605963054     -0.9220447073 
  C4            2.0781998784     -1.9843413899     -1.6270236936 
  C5            2.4196222068     -3.1213261607     -2.6188891173 
  C6            3.7845224128     -3.2381847010     -3.3214246869 
  C7            0.6041057248     -1.7925912060     -1.5936768290 
  C8           -0.2388341450     -2.8759103184     -1.2223728053 
  C9           -1.6202339248     -2.7453423178     -1.2274468657 
  C10          -2.2004184756     -1.5147903399     -1.5982578321 
  C11          -1.3882536891     -0.4306354460     -1.9865972655 
  C12          -0.0111417637     -0.5890104210     -2.0252787803 
  O13          -3.5435094390     -1.2700910057     -1.5329325876 
  C14           4.4109059707     -1.3285268570     -0.9587711032 
  C15           5.2230261758     -0.2276764070     -1.3606474495 
  C16           6.5870627888     -0.3798866969     -1.5597229493 
  C17           7.1889820383     -1.6306922923     -1.3093004636 
  C18           6.4326420857     -2.6888065489     -0.7605314793 
  C19           5.0669707912     -2.5309563084     -0.5868910886 
  O20           8.5024843542     -1.8962031213     -1.5618465282 
  H21           1.2785723406      0.7352159515      1.6059144993 
  H22           0.8637596352     -0.9257988552      1.1369182218 
  H23           0.4114292158      0.4373726488      0.1067914731 
  H24           3.3132225805     -0.1047492673      0.8665781886 
  H25           2.7649052384      0.9399229306     -0.4163255135 
  H26           1.6716694999     -3.0235434947     -3.4134797115 
  H27           2.1897689412     -4.0805887451     -2.1281458002 
  H28           4.1555504059     -2.2671775519     -3.6631549577 
  H29           3.6566435647     -3.8751899442     -4.2032789588 
  H30           4.5522996450     -3.6923178800     -2.6961664755 
  H31           0.1991519708     -3.8236400803     -0.9324401756 
  H32          -2.2478653121     -3.5804170211     -0.9337335217 
  H33          -1.8645132298      0.5025315872     -2.2600559987 
  H34           0.6109450843      0.2273603478     -2.3737001726 
  H35          -4.0925575505     -2.0723752881     -1.4141838542 
  H36           4.7692090900      0.7390255320     -1.5411771088 
  H37           7.1805089466      0.4500331821     -1.9302001874 
  H38           6.9359266424     -3.6168480242     -0.5217647345 
  H39           4.4822177954     -3.3472404879     -0.1780773780 
  H40           9.0074220867     -1.1337431585     -1.9135641543 
   
  nuclear repulsion energy.......    1469.849168440 hartrees
  -------------------------------------------------
 /  end of geometry optimization iteration   3   /
 -------------------------------------------------
   
  Peak memory usage:   4727 Mb
  
  end of program geopt
   
 Time(geopt)  user:        7.8  user+sys:        7.8  wallclock:        0.6
  
  start of program onee
  
  smallest eigenvalue of S:    6.310E-04
  number of canonical orbitals.....          220
  Peak memory usage:   4838 Mb
  
  end of program onee
   
 Time(onee)  user:        1.9  user+sys:        1.9  wallclock:        0.4
  
  start of program probe
  
  Peak memory usage:   4756 Mb
  
  end of program probe
   
 Time(probe)  user:        2.6  user+sys:        2.6  wallclock:        0.4
  
  start of program grid
  
   grid     grid set  grid #  grid sym
  ------    --------  ------  --------
  coarse        0        0        1
  medium        2        1        1
  fine          0        0        1
  ultrafine     4        2        1
  charge       -1        3        1
  gradient      4        2        1
  density       0        0        1
  DFT-fine    -11        4        1
  DFT-med.    -10        5        1
  DFT-grad    -12        6        1
  DFT-der2      0        0        1
  DFT-cphf      0        0        1
  LMP2-enrg     4        2        1
  LMP2-grad     2        1        1
  DFT-cphf2     0        0        1
  PBF-dens      0        0        1
  plotting      0        0        1
  Rel-grad    -17        0        1
  
  number of gridpoints: 
     atom        C1       C2       C3       C4       C5       C6       C7
  grid # 1       77       88       99       99       88       79      100
  grid # 2      267      289      365      365      290      265      357
  grid # 3        6        6       63       60        6        6       16
  grid # 4     4304     4304     4304     4304     4304     4304     4304
  grid # 5     1192     1192     1192     1192     1192     1192     1192
  grid # 6     5226     5226     5226     5226     5226     5226     5226
   
  number of gridpoints: 
     atom        C8       C9      C10      C11      C12      O13      C14
  grid # 1       95       96       98       96       95      114       97
  grid # 2      333      335      353      333      328      426      354
  grid # 3       83      188      208      137       83      779       18
  grid # 4     4304     4304     4304     4304     4304     4304     4304
  grid # 5     1192     1192     1192     1192     1192     1192     1192
  grid # 6     5226     5226     5226     5226     5226     5226     5226
   
  number of gridpoints: 
     atom       C15      C16      C17      C18      C19      O20      H21
  grid # 1       95       96       98       96       96      114      108
  grid # 2      337      337      357      334      330      424      438
  grid # 3       98      187      192      138       90      769     1118
  grid # 4     4304     4304     4304     4304     4304     4304     4304
  grid # 5     1192     1192     1192     1192     1192     1192     1192
  grid # 6     5226     5226     5226     5226     5226     5226     5226
   
  number of gridpoints: 
     atom       H22      H23      H24      H25      H26      H27      H28
  grid # 1      109      103      107      106      107      106      111
  grid # 2      435      421      428      421      429      424      433
  grid # 3      844      518      772      603      754      627      809
  grid # 4     4304     4304     4304     4304     4304     4304     4304
  grid # 5     1192     1192     1192     1192     1192     1192     1192
  grid # 6     5226     5226     5226     5226     5226     5226     5226
   
  number of gridpoints: 
     atom       H29      H30      H31      H32      H33      H34      H35
  grid # 1      109      105      113      118      117      115      114
  grid # 2      442      424      437      444      449      434      450
  grid # 3     1111      539      836     1150     1221      831     1340
  grid # 4     4304     4304     4304     4304     4304     4304     4304
  grid # 5     1192     1192     1192     1192     1192     1192     1192
  grid # 6     5226     5226     5226     5226     5226     5226     5226
   
  number of gridpoints: 
     atom       H36      H37      H38      H39      H40    total
  grid # 1      112      117      117      115      114     4139
  grid # 2      432      443      448      435      450    15496
  grid # 3      835     1148     1212      865     1333    21599
  grid # 4     4304     4304     4304     4304     4304   172160
  grid # 5     1192     1192     1192     1192     1192    47680
  grid # 6     5226     5226     5226     5226     5226   209040
   
  Peak memory usage:   4788 Mb
  
  end of program grid
   
 Time(grid)  user:       22.6  user+sys:       22.6  wallclock:        2.1
  
  start of program rwr
  
  Peak memory usage:   4745 Mb
  
  end of program rwr
   
 Time(rwr)  user:       40.9  user+sys:       40.9  wallclock:        4.4
  
  start of program scf
  
 Energy computed with NOPS off.
  
       i  u  d  i  g                   
       t  p  i  c  r                                 RMS    maximum
       e  d  i  u  i                       energy  density   DIIS  
       r  t  s  t  d       total energy    change  change    error 
  
etot    1  N  N  2  U    -847.87663546934           8.0E-04  1.1E-02
etot    2  Y  Y  6  M    -847.89575720135  1.9E-02  1.9E-04  1.3E-03
etot    3  N  Y  2  U    -847.89572858691 -2.9E-05  1.4E-04  2.4E-03
etot    4  Y  Y  6  M    -847.89603811730  3.1E-04  6.1E-05  9.1E-04
etot    5  Y  Y  6  M    -847.89608457724  4.6E-05  3.6E-05  6.2E-04
etot    6  N  Y  2  U    -847.89608055017 -4.0E-06  1.6E-05  4.4E-04
etot    7  N  Y  2  U    -847.89608487523  4.3E-06  5.6E-06  9.1E-05
etot    8  N  Y  2  U    -847.89608529594  4.2E-07  4.5E-06  4.5E-05
etot    9  N  N  2  U    -847.89608547917  1.8E-07  0.0E+00  0.0E+00
  
  
 Energy components, in hartrees:
   (A)  Nuclear repulsion............    1469.84916843998
   (E)  Total one-electron terms.....   -4048.73865619708
   (I)  Total two-electron terms.....    1730.99340227793
   (L)  Electronic energy............   -2317.74525391915  (E+I)
   (N)  Total energy.................    -847.89608547917  (A+L)
   (O)  Gas phase energy.............    -847.89608547917
  
                                 Total             Coulomb       Exchange+Corr.
 Total two-electron terms    1730.99340227793    1853.00670489182    -122.01330261389
   Hamiltonian  1........     889.32586510423     932.79059593553     -43.46473083131
   Hamiltonian  2........     877.15540173992     920.21610895629     -43.06070721637
  
 SCFE: SCF energy: UDFT(b3lyp)      -847.89608547917 hartrees   iterations:   9
  
 
 Alpha HOMO energy:    -0.35214
 Alpha LUMO energy:    -0.16247
 
  Alpha Orbital energies (hartrees): 
   -19.31843   -19.31346   -10.40299   -10.39891   -10.35854   -10.35795
   -10.34698   -10.34370   -10.33603   -10.33241   -10.33114   -10.33001
   -10.32927   -10.32753   -10.32454   -10.32137   -10.31431   -10.31386
   -10.28110   -10.27970    -1.21068    -1.20521    -1.01264    -1.00098
    -0.96095    -0.91465    -0.89543    -0.89298    -0.88306    -0.87132
    -0.83975    -0.79256    -0.76899    -0.75833    -0.74726    -0.74178
    -0.73101    -0.69002    -0.68676    -0.67159    -0.63142    -0.61679
    -0.60462    -0.60265    -0.58236    -0.57691    -0.57136    -0.56931
    -0.56476    -0.56145    -0.55425    -0.54953    -0.54284    -0.53646
    -0.52833    -0.51008    -0.50457    -0.49791    -0.48884    -0.47941
    -0.47825    -0.47505    -0.47397    -0.47074    -0.46171    -0.45115
    -0.44316    -0.39866    -0.39234    -0.38994    -0.36153    -0.35214
    -0.16247    -0.14065    -0.13797    -0.13677    -0.10915    -0.05744
    -0.05402    -0.03537    -0.02387    -0.01921
 
 
 Beta HOMO energy:    -0.34079
 Beta LUMO energy:    -0.30555
 
  Beta Orbital energies (hartrees): 
   -19.31616   -19.31134   -10.40150   -10.39750   -10.35649   -10.35597
   -10.34525   -10.34216   -10.33546   -10.33193   -10.33104   -10.32987
   -10.32906   -10.32732   -10.32402   -10.32099   -10.31432   -10.31383
   -10.28097   -10.27954    -1.20582    -1.20064    -1.00813    -0.99756
    -0.95607    -0.91128    -0.89408    -0.89161    -0.88062    -0.86821
    -0.83560    -0.79046    -0.76679    -0.75607    -0.74555    -0.74013
    -0.72834    -0.68864    -0.68547    -0.66960    -0.62964    -0.61432
    -0.60265    -0.60029    -0.58090    -0.57519    -0.56999    -0.56804
    -0.56400    -0.56029    -0.54695    -0.54424    -0.53702    -0.53204
    -0.52712    -0.50787    -0.50231    -0.49248    -0.48676    -0.47779
    -0.47374    -0.47265    -0.47030    -0.46906    -0.46057    -0.44470
    -0.43933    -0.39111    -0.38850    -0.37941    -0.34079    -0.30555
    -0.15016    -0.13464    -0.13268    -0.12606    -0.09509    -0.05654
    -0.05315    -0.03462    -0.02295
 
  
  
    Unrestricted Spin Properties ...
    Sz*(Sz+1)      0.750
    <S**2> ...     0.754
  
  
  Peak memory usage:   6748 Mb
  
  end of program scf
   
 Time(scf)  user:      146.8  user+sys:      146.8  wallclock:       10.4
  
  start of program der1a
  
  Peak memory usage:   4838 Mb
  
  end of program der1a
   
 Time(der1a)  user:        2.1  user+sys:        2.1  wallclock:        0.5
  
  start of program rwr
  
  Peak memory usage:   4745 Mb
  
  end of program rwr
   
 Time(rwr)  user:       30.4  user+sys:       30.4  wallclock:        4.2
  
  start of program der1b
  
   
  forces (hartrees/bohr) : total     
   
 atom  label           x              y              z
 ---- --------   -------------  -------------  -------------
    1 C1         -1.700686E-03   1.855304E-03  -1.558471E-03
    2 C2          4.431766E-04   3.461066E-04  -2.627915E-03
    3 C3          4.960027E-03   2.111716E-03   9.304687E-03
    4 C4         -6.165785E-03  -1.299247E-03  -5.904935E-03
    5 C5          7.316285E-04   5.005925E-04   2.756835E-03
    6 C6          7.230294E-04   8.829420E-04   4.990298E-04
    7 C7          1.236626E-03  -5.644754E-04   1.058701E-03
    8 C8         -9.342553E-04  -1.603632E-03  -6.849689E-03
    9 C9          5.098382E-04  -8.679035E-04  -8.147007E-05
   10 C10        -4.617207E-04   2.279834E-03   6.169969E-03
   11 C11         1.656736E-03  -1.218145E-03  -3.981871E-03
   12 C12         5.016871E-05   3.277982E-03   6.358922E-03
   13 O13        -3.778414E-04  -2.185152E-03  -5.349852E-03
   14 C14         7.739387E-04   9.960074E-05  -3.937167E-03
   15 C15         3.329277E-04  -3.749837E-05   3.795794E-03
   16 C16        -4.487636E-04   1.102995E-04  -1.170348E-03
   17 C17         2.522084E-05  -1.391150E-04   1.529356E-03
   18 C18        -1.373916E-03   6.589549E-04  -7.100458E-05
   19 C19        -1.493217E-03  -3.142079E-03  -5.312487E-03
   20 O20         1.089399E-03   1.719282E-03   1.367374E-03
   21 H21         1.519384E-04  -1.435736E-03   8.137316E-04
   22 H22         7.209514E-04  -4.763284E-04   9.534918E-04
   23 H23         3.294501E-04  -5.464495E-04   1.209275E-03
   24 H24         6.101786E-04   9.651203E-04  -5.693517E-04
   25 H25         1.904792E-05   1.489105E-05  -5.250158E-04
   26 H26        -9.086525E-04  -1.131124E-03   5.829447E-04
   27 H27        -6.737524E-05  -5.892107E-04   1.100193E-04
   28 H28        -5.249363E-04   3.551980E-04  -4.588523E-04
   29 H29         3.858614E-04   2.868043E-04   1.347833E-04
   30 H30         4.835332E-05  -9.353260E-05  -2.775676E-04
   31 H31         2.383559E-04   3.364755E-04   1.466757E-03
   32 H32        -1.579566E-04   2.528783E-04   1.083559E-03
   33 H33        -6.329562E-05  -5.322638E-04  -1.804855E-03
   34 H34        -5.029030E-05   5.167325E-04   7.322658E-04
   35 H35         2.874404E-04   1.006574E-03   2.394245E-03
   36 H36        -7.115313E-04  -4.467072E-04  -2.703427E-03
   37 H37         5.071709E-05   4.478102E-06   4.148470E-05
   38 H38         3.782566E-04   1.981602E-04   1.356146E-03
   39 H39        -9.151407E-05  -5.007766E-04  -8.131541E-04
   40 H40        -3.785292E-04  -9.706579E-04   1.307247E-04
 -------------   -------------  -------------  -------------
     total       -1.569978E-04  -1.079168E-07  -1.473383E-04
   
  Peak memory usage:   6742 Mb
  
  end of program der1b
   
 Time(der1b)  user:       44.3  user+sys:       44.3  wallclock:        3.3
  
  start of program geopt
  
 ----------------------------------------------------------------------------
  Geometry optimization step  4
  Total energy:      -847.89608547917 hartrees
 ----------------------------------------------------------------------------
  
  
  Level shifts adjusted to satisfy step-size constraints
   Step size:    0.3000553
   Cos(theta):   0.8755950
   Final level shift:  -4.5378253E-02
  
  energy change:          -7.5274E-03 .  (  5.0000E-05 )
  gradient maximum:        6.8636E-03 .  (  4.5000E-04 )
  gradient rms:            1.9720E-03 .  (  3.0000E-04 )
  displacement maximum:    9.5707E-02 .  (  1.8000E-03 )
  displacement rms:        2.6215E-02 .  (  1.2000E-03 )
  
  predicted energy change:  -5.0078E-03
  step size:     0.30005
  trust radius:  0.30000
  
  molecular structure not yet converged...
  
  center of mass moved by:
     x:    -1.1161E-02     y:    -3.0085E-03     z:    -1.2294E-02
  
  new geometry: 
                                   angstroms
  atom               x                 y                 z
  C1            1.3043043915      0.0382113253      0.8521257130 
  C2            2.6025401031      0.0147178401      0.0230239175 
  C3            2.9409408706     -1.1394450141     -0.9485713578 
  C4            2.0577335130     -1.9898519013     -1.6069063254 
  C5            2.4094759663     -3.1494222703     -2.5607672312 
  C6            3.7442551634     -3.2015263558     -3.3270143674 
  C7            0.5889596735     -1.7975286899     -1.5685925006 
  C8           -0.2594463776     -2.8870457329     -1.2319597021 
  C9           -1.6403972070     -2.7537679149     -1.2508640578 
  C10          -2.2124941075     -1.5260224435     -1.6412175667 
  C11          -1.3936899550     -0.4396440536     -2.0088379292 
  C12          -0.0161490554     -0.5813469477     -1.9778356204 
  O13          -3.5556926915     -1.2892867085     -1.6292086393 
  C14           4.4052664829     -1.3280166432     -1.0222657248 
  C15           5.2293691953     -0.2282037913     -1.3926640220 
  C16           6.5998220475     -0.3803946597     -1.5435824200 
  C17           7.1921434136     -1.6290023168     -1.2673539673 
  C18           6.4117828653     -2.6983575193     -0.7773447068 
  C19           5.0387925211     -2.5491249079     -0.6765337843 
  O20           8.5216034743     -1.8795505371     -1.4277465939 
  H21           1.4398461083      0.7593476663      1.6646990252 
  H22           1.0903218498     -0.9365390269      1.3011821278 
  H23           0.4306655893      0.3510736854      0.2834003635 
  H24           3.4238542919      0.0160553316      0.7487781674 
  H25           2.6938298726      0.9714072399     -0.5178464922 
  H26           1.6170972851     -3.1374949109     -3.3174520313 
  H27           2.2682245446     -4.0991686057     -2.0180996597 
  H28           4.0161926354     -2.2216826972     -3.7335004175 
  H29           3.6223283233     -3.8879860203     -4.1708501060 
  H30           4.5772372102     -3.5618750023     -2.7256133759 
  H31           0.1772604981     -3.8363386540     -0.9440397641 
  H32          -2.2760893756     -3.5842035613     -0.9603775052 
  H33          -1.8692584908      0.4784712771     -2.3300172521 
  H34           0.6142824757      0.2467059202     -2.2815730860 
  H35          -4.1063097170     -2.0832550016     -1.4769487565 
  H36           4.7772521262      0.7367159891     -1.5894533929 
  H37           7.2095571221      0.4488519097     -1.8884006437 
  H38           6.9117149122     -3.6193267687     -0.5050356557 
  H39           4.4354031000     -3.3711116405     -0.3072846987 
  H40           9.0452943706     -1.1132190703     -1.7369800751 
   
  nuclear repulsion energy.......    1469.824758650 hartrees
  -------------------------------------------------
 /  end of geometry optimization iteration   4   /
 -------------------------------------------------
   
  Peak memory usage:   4727 Mb
  
  end of program geopt
   
 Time(geopt)  user:        5.8  user+sys:        5.8  wallclock:        0.5
  
  start of program onee
  
  smallest eigenvalue of S:    6.218E-04
  number of canonical orbitals.....          220
  Peak memory usage:   4838 Mb
  
  end of program onee
   
 Time(onee)  user:        2.3  user+sys:        2.3  wallclock:        0.4
  
  start of program probe
  
  Peak memory usage:   4756 Mb
  
  end of program probe
   
 Time(probe)  user:        1.6  user+sys:        1.6  wallclock:        0.4
  
  start of program grid
  
   grid     grid set  grid #  grid sym
  ------    --------  ------  --------
  coarse        0        0        1
  medium        2        1        1
  fine          0        0        1
  ultrafine     4        2        1
  charge       -1        3        1
  gradient      4        2        1
  density       0        0        1
  DFT-fine    -11        4        1
  DFT-med.    -10        5        1
  DFT-grad    -12        6        1
  DFT-der2      0        0        1
  DFT-cphf      0        0        1
  LMP2-enrg     4        2        1
  LMP2-grad     2        1        1
  DFT-cphf2     0        0        1
  PBF-dens      0        0        1
  plotting      0        0        1
  Rel-grad    -17        0        1
  
  number of gridpoints: 
     atom        C1       C2       C3       C4       C5       C6       C7
  grid # 1       77       88       99       99       88       78      100
  grid # 2      266      290      363      363      290      266      357
  grid # 3        6        6       61       62        6        6       21
  grid # 4     4304     4304     4304     4304     4304     4304     4304
  grid # 5     1192     1192     1192     1192     1192     1192     1192
  grid # 6     5226     5226     5226     5226     5226     5226     5226
   
  number of gridpoints: 
     atom        C8       C9      C10      C11      C12      O13      C14
  grid # 1       95       97       98       96       95      114       98
  grid # 2      334      335      353      334      329      426      352
  grid # 3       93      196      211      141       84      778       18
  grid # 4     4304     4304     4304     4304     4304     4304     4304
  grid # 5     1192     1192     1192     1192     1192     1192     1192
  grid # 6     5226     5226     5226     5226     5226     5226     5226
   
  number of gridpoints: 
     atom       C15      C16      C17      C18      C19      O20      H21
  grid # 1       95       96       98       96       95      114      108
  grid # 2      334      335      355      334      327      425      439
  grid # 3       90      190      202      135       87      771     1113
  grid # 4     4304     4304     4304     4304     4304     4304     4304
  grid # 5     1192     1192     1192     1192     1192     1192     1192
  grid # 6     5226     5226     5226     5226     5226     5226     5226
   
  number of gridpoints: 
     atom       H22      H23      H24      H25      H26      H27      H28
  grid # 1      110      105      107      107      107      107      111
  grid # 2      438      422      427      421      427      421      436
  grid # 3      902      572      734      599      736      612      848
  grid # 4     4304     4304     4304     4304     4304     4304     4304
  grid # 5     1192     1192     1192     1192     1192     1192     1192
  grid # 6     5226     5226     5226     5226     5226     5226     5226
   
  number of gridpoints: 
     atom       H29      H30      H31      H32      H33      H34      H35
  grid # 1      110      104      113      118      117      115      114
  grid # 2      443      420      436      444      448      435      451
  grid # 3     1111      500      838     1154     1244      790     1335
  grid # 4     4304     4304     4304     4304     4304     4304     4304
  grid # 5     1192     1192     1192     1192     1192     1192     1192
  grid # 6     5226     5226     5226     5226     5226     5226     5226
   
  number of gridpoints: 
     atom       H36      H37      H38      H39      H40    total
  grid # 1      112      118      117      115      114     4145
  grid # 2      435      443      447      433      450    15484
  grid # 3      824     1147     1227      799     1335    21584
  grid # 4     4304     4304     4304     4304     4304   172160
  grid # 5     1192     1192     1192     1192     1192    47680
  grid # 6     5226     5226     5226     5226     5226   209040
   
  Peak memory usage:   4788 Mb
  
  end of program grid
   
 Time(grid)  user:       20.8  user+sys:       20.8  wallclock:        2.0
  
  start of program rwr
  
  Peak memory usage:   4745 Mb
  
  end of program rwr
   
 Time(rwr)  user:       42.4  user+sys:       42.4  wallclock:        4.0
  
  start of program scf
  
 Energy computed with NOPS off.
  
       i  u  d  i  g                   
       t  p  i  c  r                                 RMS    maximum
       e  d  i  u  i                       energy  density   DIIS  
       r  t  s  t  d       total energy    change  change    error 
  
etot    1  N  N  2  U    -847.87964182930           8.1E-04  1.3E-02
etot    2  Y  Y  6  M    -847.90049191900  2.1E-02  1.8E-04  1.6E-03
etot    3  N  Y  2  U    -847.90052523397  3.3E-05  1.4E-04  2.4E-03
etot    4  Y  Y  6  M    -847.90076067127  2.4E-04  5.5E-05  1.1E-03
etot    5  Y  Y  6  M    -847.90078330360  2.3E-05  2.3E-05  5.7E-04
etot    6  N  Y  2  U    -847.90076356218 -2.0E-05  6.9E-06  1.1E-04
etot    7  N  Y  2  U    -847.90076434802  7.9E-07  6.4E-06  1.0E-04
etot    8  N  Y  2  U    -847.90076465019  3.0E-07  3.8E-06  6.5E-05
etot    9  N  N  2  U    -847.90076488599  2.4E-07  0.0E+00  0.0E+00
  
  
 Energy components, in hartrees:
   (A)  Nuclear repulsion............    1469.82475865039
   (E)  Total one-electron terms.....   -4048.65996744547
   (I)  Total two-electron terms.....    1730.93444390908
   (L)  Electronic energy............   -2317.72552353638  (E+I)
   (N)  Total energy.................    -847.90076488599  (A+L)
   (O)  Gas phase energy.............    -847.90076488599
  
                                 Total             Coulomb       Exchange+Corr.
 Total two-electron terms    1730.93444390908    1852.95981124012    -122.02536733104
   Hamiltonian  1........     889.31367006357     932.78209501623     -43.46842495266
   Hamiltonian  2........     877.11172644461     920.17771622389     -43.06598977928
  
 SCFE: SCF energy: UDFT(b3lyp)      -847.90076488599 hartrees   iterations:   9
  
 
 Alpha HOMO energy:    -0.34952
 Alpha LUMO energy:    -0.16756
 
  Alpha Orbital energies (hartrees): 
   -19.31673   -19.31369   -10.40208   -10.39944   -10.35990   -10.35930
   -10.34498   -10.34342   -10.33508   -10.33283   -10.33122   -10.32981
   -10.32944   -10.32794   -10.32290   -10.32107   -10.31451   -10.31434
   -10.28117   -10.28094    -1.20998    -1.20670    -1.01338    -1.00126
[...]
  H28           1.1137685162     -3.1652009309     -4.1352369585 
  H29           2.6185881307     -4.0239716717     -4.5098410522 
  H30           2.5985307964     -2.2536874762     -4.4682258769 
  H31           0.1611039080     -3.8667526724     -1.3454825733 
  H32          -2.2717179708     -3.6139540406     -1.5012208349 
  H33          -1.7920836443      0.5300564124     -2.5812774428 
  H34           0.6621894080      0.3028441414     -2.3888522399 
  H35          -4.0761213175     -2.0805610566     -1.9891992419 
  H36           4.9004125373      0.7440751572     -1.3431873608 
  H37           7.3205650562      0.4444883228     -1.1113859431 
  H38           6.7337833366     -3.7080251250     -0.1205483393 
  H39           4.2919224860     -3.4327250802     -0.3879630880 
  H40           9.0807792811     -1.1276500527     -0.5868854790 
   
  nuclear repulsion energy.......    1461.126343725 hartrees
  -------------------------------------------------
 /  end of geometry optimization iteration  24   /
 -------------------------------------------------
   
  Peak memory usage:   4727 Mb
  
  end of program geopt
   
 Time(geopt)  user:        7.7  user+sys:        7.7  wallclock:        0.6
  
  start of program onee
  
  smallest eigenvalue of S:    6.249E-04
  number of canonical orbitals.....          220
  Peak memory usage:   4838 Mb
  
  end of program onee
   
 Time(onee)  user:        2.2  user+sys:        2.2  wallclock:        0.5
  
  start of program probe
  
  Peak memory usage:   4756 Mb
  
  end of program probe
   
 Time(probe)  user:        1.9  user+sys:        1.9  wallclock:        0.4
  
  start of program grid
  
   grid     grid set  grid #  grid sym
  ------    --------  ------  --------
  coarse        0        0        1
  medium        2        1        1
  fine          0        0        1
  ultrafine     4        2        1
  charge       -1        3        1
  gradient      4        2        1
  density       0        0        1
  DFT-fine    -11        4        1
  DFT-med.    -10        5        1
  DFT-grad    -12        6        1
  DFT-der2      0        0        1
  DFT-cphf      0        0        1
  LMP2-enrg     4        2        1
  LMP2-grad     2        1        1
  DFT-cphf2     0        0        1
  PBF-dens      0        0        1
  plotting      0        0        1
  Rel-grad    -17        0        1
  
  number of gridpoints: 
     atom        C1       C2       C3       C4       C5       C6       C7
  grid # 1       77       85      100      100       85       77      100
  grid # 2      272      289      370      369      289      272      356
  grid # 3        6        6       66       62        6        6       50
  grid # 4     4304     4304     4304     4304     4304     4304     4304
  grid # 5     1192     1192     1192     1192     1192     1192     1192
  grid # 6     5226     5226     5226     5226     5226     5226     5226
   
  number of gridpoints: 
     atom        C8       C9      C10      C11      C12      O13      C14
  grid # 1       96       96       99       97       95      114      100
  grid # 2      334      335      357      335      332      425      359
  grid # 3      109      195      232      191       80      779       50
  grid # 4     4304     4304     4304     4304     4304     4304     4304
  grid # 5     1192     1192     1192     1192     1192     1192     1192
  grid # 6     5226     5226     5226     5226     5226     5226     5226
   
  number of gridpoints: 
     atom       C15      C16      C17      C18      C19      O20      H21
  grid # 1       96       96       99       97       95      114      111
  grid # 2      334      335      357      335      331      425      444
  grid # 3      111      198      231      191       79      779     1130
  grid # 4     4304     4304     4304     4304     4304     4304     4304
  grid # 5     1192     1192     1192     1192     1192     1192     1192
  grid # 6     5226     5226     5226     5226     5226     5226     5226
   
  number of gridpoints: 
     atom       H22      H23      H24      H25      H26      H27      H28
  grid # 1      108      111      105      105      106      105      108
  grid # 2      434      441      424      417      423      419      433
  grid # 3      790     1009      598      413      585      442      783
  grid # 4     4304     4304     4304     4304     4304     4304     4304
  grid # 5     1192     1192     1192     1192     1192     1192     1192
  grid # 6     5226     5226     5226     5226     5226     5226     5226
   
  number of gridpoints: 
     atom       H29      H30      H31      H32      H33      H34      H35
  grid # 1      111      111      110      118      118      109      114
  grid # 2      444      443      434      444      449      434      450
  grid # 3     1126     1013      808     1143     1289      745     1333
  grid # 4     4304     4304     4304     4304     4304     4304     4304
  grid # 5     1192     1192     1192     1192     1192     1192     1192
  grid # 6     5226     5226     5226     5226     5226     5226     5226
   
  number of gridpoints: 
     atom       H36      H37      H38      H39      H40    total
  grid # 1      110      118      118      107      114     4135
  grid # 2      434      444      449      435      450    15556
  grid # 3      812     1143     1288      729     1333    21939
  grid # 4     4304     4304     4304     4304     4304   172160
  grid # 5     1192     1192     1192     1192     1192    47680
  grid # 6     5226     5226     5226     5226     5226   209040
   
  Peak memory usage:   4788 Mb
  
  end of program grid
   
 Time(grid)  user:       22.9  user+sys:       22.9  wallclock:        2.1
  
  start of program rwr
  
  Peak memory usage:   4745 Mb
  
  end of program rwr
   
 Time(rwr)  user:       39.2  user+sys:       39.2  wallclock:        4.1
  
  start of program scf
  
 Energy computed with NOPS off.
  
       i  u  d  i  g                   
       t  p  i  c  r                                 RMS    maximum
       e  d  i  u  i                       energy  density   DIIS  
       r  t  s  t  d       total energy    change  change    error 
  
etot    1  N  N  2  U    -847.92567718832           6.0E-05  1.1E-03
etot    2  Y  Y  6  M    -847.92579064234  1.1E-04  1.5E-05  1.0E-04
etot    3  N  Y  2  U    -847.92579070139  5.9E-08  9.3E-06  2.3E-04
etot    4  N  Y  2  U    -847.92579319191  2.5E-06  1.7E-06  1.9E-05
etot    5  N  N  2  U    -847.92579319035 -1.6E-09  0.0E+00  0.0E+00
  
  
 Energy components, in hartrees:
   (A)  Nuclear repulsion............    1461.12634372495
   (E)  Total one-electron terms.....   -4031.16683150965
   (I)  Total two-electron terms.....    1722.11469459435
   (L)  Electronic energy............   -2309.05213691530  (E+I)
   (N)  Total energy.................    -847.92579319035  (A+L)
   (O)  Gas phase energy.............    -847.92579319035
  
                                 Total             Coulomb       Exchange+Corr.
 Total two-electron terms    1722.11469459435    1844.14873601616    -122.03404142181
   Hamiltonian  1........     884.91859824302     928.38794717988     -43.46934893686
   Hamiltonian  2........     872.68915471537     915.76078883628     -43.07163412091
  
 SCFE: SCF energy: UDFT(b3lyp)      -847.92579319035 hartrees   iterations:   5
  
 
 Alpha HOMO energy:    -0.34247
 Alpha LUMO energy:    -0.18052
 
  Alpha Orbital energies (hartrees): 
   -19.31466   -19.31421   -10.40171   -10.40114   -10.36376   -10.36333
   -10.34540   -10.34520   -10.33538   -10.33517   -10.33245   -10.33212
   -10.32857   -10.32827   -10.32179   -10.32155   -10.31168   -10.31146
   -10.28433   -10.28399    -1.20759    -1.20707    -1.01501    -1.00115
    -0.96531    -0.91898    -0.89520    -0.89487    -0.88343    -0.87209
    -0.83972    -0.78873    -0.76981    -0.76101    -0.75260    -0.74325
    -0.71965    -0.68984    -0.68950    -0.68258    -0.64535    -0.61603
    -0.60458    -0.60095    -0.58565    -0.57876    -0.57510    -0.56714
    -0.56545    -0.55781    -0.55073    -0.55062    -0.54693    -0.53614
    -0.51612    -0.51556    -0.50496    -0.50340    -0.48784    -0.48439
    -0.48223    -0.47459    -0.47290    -0.46994    -0.45945    -0.45914
    -0.45209    -0.40642    -0.39440    -0.39365    -0.36620    -0.34247
    -0.18052    -0.13994    -0.13763    -0.13144    -0.10062    -0.05479
    -0.05436    -0.03262    -0.02699    -0.00818
 
 
 Beta HOMO energy:    -0.34931
 Beta LUMO energy:    -0.29377
 
  Beta Orbital energies (hartrees): 
   -19.31275   -19.31230   -10.40014   -10.39957   -10.36110   -10.36068
   -10.34439   -10.34419   -10.33460   -10.33438   -10.33190   -10.33157
   -10.32857   -10.32828   -10.32170   -10.32146   -10.31175   -10.31150
   -10.28404   -10.28370    -1.20344    -1.20293    -1.01025    -0.99804
    -0.96006    -0.91614    -0.89382    -0.89344    -0.88092    -0.86899
    -0.83472    -0.78646    -0.76782    -0.75918    -0.75061    -0.74153
    -0.71716    -0.68859    -0.68822    -0.68039    -0.64372    -0.61347
    -0.60193    -0.59913    -0.58447    -0.57677    -0.57371    -0.56660
    -0.56492    -0.55598    -0.54947    -0.54269    -0.53785    -0.53270
    -0.51421    -0.51144    -0.50293    -0.50183    -0.48383    -0.48242
    -0.47902    -0.47264    -0.46808    -0.46696    -0.45700    -0.45603
    -0.44950    -0.39229    -0.39184    -0.38680    -0.34931    -0.29377
    -0.16537    -0.13501    -0.13258    -0.11993    -0.08559    -0.05404
    -0.05356    -0.03176    -0.02605
 
  
  
    Unrestricted Spin Properties ...
    Sz*(Sz+1)      0.750
    <S**2> ...     0.755
  
  
  Peak memory usage:   6748 Mb
  
  end of program scf
   
 Time(scf)  user:       93.5  user+sys:       93.5  wallclock:        6.8
  
  start of program der1a
  
  Peak memory usage:   4838 Mb
  
  end of program der1a
   
 Time(der1a)  user:        1.9  user+sys:        1.9  wallclock:        0.5
  
  start of program rwr
  
  Peak memory usage:   4745 Mb
  
  end of program rwr
   
 Time(rwr)  user:       30.3  user+sys:       30.3  wallclock:        4.4
  
  start of program der1b
  
   
  forces (hartrees/bohr) : total     
   
 atom  label           x              y              z
 ---- --------   -------------  -------------  -------------
    1 C1         -4.356508E-06   3.193519E-05  -1.101430E-04
    2 C2          9.496180E-05  -7.113538E-05   1.365107E-04
    3 C3         -5.036910E-05   3.877999E-05  -9.544086E-05
    4 C4          7.571119E-05   3.915206E-05   1.539785E-04
    5 C5          6.348804E-06   1.557895E-05  -1.306799E-05
    6 C6          4.197688E-06  -1.977325E-05  -3.789265E-05
    7 C7         -5.946091E-05   2.442514E-05  -2.000638E-05
    8 C8         -3.724099E-05  -1.411510E-06   1.373954E-05
    9 C9         -5.910171E-06   1.647505E-05  -9.891235E-06
   10 C10        -7.457581E-07   1.778055E-05  -2.458020E-05
   11 C11         1.674103E-05   6.540719E-06   1.180475E-05
   12 C12        -1.194144E-05   1.143923E-05   2.045495E-05
   13 O13        -2.735288E-06   1.701757E-05   3.000314E-06
   14 C14        -6.230455E-06   1.081878E-05  -2.457938E-05
   15 C15        -7.632919E-06  -3.084202E-05  -8.348560E-05
   16 C16        -2.772021E-05   3.605958E-05  -1.546342E-05
   17 C17         3.101325E-05  -2.303168E-05  -7.456492E-06
   18 C18        -1.207781E-05  -1.663656E-05  -2.710398E-07
   19 C19        -5.052536E-05  -8.795132E-06   8.889196E-07
   20 O20         4.105452E-06   1.620054E-06  -9.204573E-06
   21 H21         1.695326E-05   2.111384E-05  -4.555633E-05
   22 H22         2.080137E-05   1.445460E-05  -1.567251E-05
   23 H23         1.026061E-05   2.126748E-05  -8.507593E-06
   24 H24         2.503312E-05   1.124005E-05  -6.003944E-05
   25 H25        -3.547224E-05  -1.109352E-05  -8.255394E-05
   26 H26        -8.524972E-06   1.996236E-06  -2.337609E-05
   27 H27         1.241723E-06  -4.123883E-05   2.582107E-05
   28 H28        -8.905208E-06  -1.825006E-05   3.343292E-05
   29 H29        -1.521783E-05  -1.542346E-05   1.715311E-05
   30 H30        -1.042211E-05  -2.160882E-05   8.088733E-06
   31 H31        -2.032047E-05   6.588922E-06   2.787903E-05
   32 H32         2.977775E-06   2.262467E-05   2.356337E-05
   33 H33         1.615820E-05  -2.050700E-06  -1.176868E-05
   34 H34         2.055808E-05   1.377087E-05  -1.619576E-06
   35 H35        -1.798585E-05   1.246802E-05   1.764911E-05
   36 H36        -1.085474E-05   8.712197E-06   1.396777E-05
   37 H37         4.382121E-06  -7.778538E-06  -3.181408E-05
   38 H38        -1.934237E-06  -1.396903E-05  -3.697917E-06
   39 H39        -2.094041E-05  -1.653579E-05  -6.014825E-07
   40 H40         8.913849E-07  -2.842319E-05  -2.854291E-05
 -------------   -------------  -------------  -------------
     total       -7.518813E-05   5.386226E-05  -2.573006E-04
   
  Peak memory usage:   6742 Mb
  
  end of program der1b
   
 Time(der1b)  user:       44.9  user+sys:       44.9  wallclock:        3.3
  
  start of program geopt
  
 ----------------------------------------------------------------------------
  Geometry optimization step 25
  Total energy:      -847.92579319035 hartrees
 ----------------------------------------------------------------------------
  
  energy change:          -5.8960E-06 *  (  5.0000E-05 )
  gradient maximum:        1.4912E-04 *  (  4.5000E-04 )
  gradient rms:            4.3454E-05 #  (  3.0000E-04 )
  displacement maximum:    6.5282E-03 .  (  1.8000E-03 )
  displacement rms:        1.0377E-03 *  (  1.2000E-03 )
  
  predicted energy change:  -7.4055E-07
  step size:     0.01188
  trust radius:  0.30000
  
  ********************************************************
  **           Geometry optimization complete           **
  ********************************************************
  
  Checking the geometry optimization convergence pattern ...
  
  best                    worst
  ==0=====1=====2=====3=====4==
    ^                          
  
  Convergence category 0: monotonic convergence.
  Geometry optimization was OK.
  
  Number of imaginary frequencies:   0
  
  center of mass moved by:
     x:     0.0000E+00     y:     0.0000E+00     z:     0.0000E+00
  
  final geometry: 
                                   angstroms
  atom               x                 y                 z
  C1            2.7440014427      0.0369663112      1.2316380844 
  C2            2.4327907921      0.1181366600     -0.2854203263 
  C3            2.9372526874     -1.1027813385     -1.0467433552 
  C4            2.0770790773     -1.9963616351     -1.7178630621 
  C5            2.5842888503     -3.2080812178     -2.4928707207 
  C6            2.1981732245     -3.1555965699     -3.9933285760 
  C7            0.6248546111     -1.7904777275     -1.7979309371 
  C8           -0.2499767898     -2.8996974743     -1.6090421313 
  C9           -1.6264285111     -2.7626687975     -1.6937118887 
  C10          -2.1804934223     -1.5114747463     -2.0329387730 
  C11          -1.3403207987     -0.4062708774     -2.2787908601 
  C12           0.0301911504     -0.5428051188     -2.1490566927 
  O13          -3.5211333771     -1.2923211873     -2.1561415497 
  C14           4.3837718131     -1.3298405897     -0.9371129137 
  C15           5.2842339869     -0.2342840803     -1.0807191947 
  C16           6.6544493360     -0.3978510223     -0.9537705736 
  C17           7.1753701097     -1.6640502794     -0.6175534061 
  C18           6.3086533682     -2.7584161618     -0.4200817722 
  C19           4.9460473462     -2.5944224231     -0.5910724053 
  O20           8.5069120813     -1.9087217318     -0.4531309939 
  H21           2.3407275115      0.9201918364      1.7364990884 
  H22           3.8199830520     -0.0056333562      1.4225249322 
  H23           2.2803390124     -0.8487129606      1.6782179932 
  H24           2.8967152897      1.0278594862     -0.6910261496 
  H25           1.3591903665      0.2402030542     -0.4008814965 
  H26           2.1749090034     -4.1303331555     -2.0561701176 
  H27           3.6668265318     -3.2887890746     -2.4280539683 
  H28           1.1137685162     -3.1652009309     -4.1352369585 
  H29           2.6185881307     -4.0239716717     -4.5098410522 
  H30           2.5985307964     -2.2536874762     -4.4682258769 
  H31           0.1611039080     -3.8667526724     -1.3454825733 
  H32          -2.2717179708     -3.6139540406     -1.5012208349 
  H33          -1.7920836443      0.5300564124     -2.5812774428 
  H34           0.6621894080      0.3028441414     -2.3888522399 
  H35          -4.0761213175     -2.0805610566     -1.9891992419 
  H36           4.9004125373      0.7440751572     -1.3431873608 
  H37           7.3205650562      0.4444883228     -1.1113859431 
  H38           6.7337833366     -3.7080251250     -0.1205483393 
  H39           4.2919224860     -3.4327250802     -0.3879630880 
  H40           9.0807792811     -1.1276500527     -0.5868854790 
   
  principal moments of inertia:
        amu*angstrom^2:      596.39281     3299.02867     3592.44782
                g*cm^2: 9.90333435E-38 5.47816530E-37 5.96539921E-37
   
  rotational constants:
               cm^(-1):      0.02826598      0.00510988      0.00469252
                   GHz:      0.84739286      0.15319024      0.14067818
   
  nuclear repulsion energy.......    1461.126343725 hartrees
  -------------------------------------------------
 /  end of geometry optimization iteration  25   /
 -------------------------------------------------
   
  Peak memory usage:   4821 Mb
  
  end of program geopt
   
 Time(geopt)  user:       11.5  user+sys:       11.5  wallclock:        1.0
  
  start of program ch
  
  Moments from quantum mechanical wavefunction:
  Dipole Moments  (Debye)
     X=     0.0857     Y=    -0.0025     Z=     0.0641  Tot=     0.1070
  
  gridpoints used for charge fit        20743
    out of a possible maximum of        21939
  
   Electrostatic potential fitting constrained to reproduce
     total charge:                yes
     dipole moment:               yes
     traceless quadrupole moment: no 
     traceless octapole moment:   no 
  
  Atomic charges from electrostatic potential: 
   
 Atom       C1           C2           C3           C4           C5      
 Charge   -0.28411      0.11288     -0.06460     -0.04897      0.11728
   
 Atom       C6           C7           C8           C9           C10     
 Charge   -0.29366      0.08359     -0.08361     -0.35991      0.58725
   
 Atom       C11          C12          O13          C14          C15     
 Charge   -0.32369     -0.03099     -0.63419      0.09034     -0.08951
   
 Atom       C16          C17          C18          C19          O20     
 Charge   -0.35791      0.58878     -0.32638     -0.02726     -0.63369
   
 Atom       H21          H22          H23          H24          H25     
 Charge    0.10379      0.08189      0.08552      0.02624      0.02214
   
 Atom       H26          H27          H28          H29          H30     
 Charge    0.02607      0.02042      0.08320      0.10552      0.08854
   
 Atom       H31          H32          H33          H34          H35     
 Charge    0.16328      0.18350      0.21076      0.11845      0.49156
   
 Atom       H36          H37          H38          H39          H40     
 Charge    0.16644      0.18317      0.21097      0.11553      0.49140
  
  sum of atomic charges:     1.000000
   
 RMS Error   6.31E-04 hartrees
 
  
  Moments from electrostatic potential charges:
  Dipole Moments  (Debye)
     X=     0.0857     Y=    -0.0025     Z=     0.0641  Tot=     0.1070
  
  Peak memory usage:   4833 Mb
  
  end of program ch
   
 Time(ch)  user:        5.5  user+sys:        5.5  wallclock:        3.0

 Total cpu seconds     user:    6777.788   user+sys:    6777.788
  
 Total elapsed time:    672 seconds

Job Diethylstilbestrol_1 completed on n046 at Sun Jan  8 22:35:41 2017
