Job estradiol_1 started on n047 at Sun Jan  8 22:24:29 2017
jobid: u01-0-5873026a

  +--------------------------------------------------------------------+
  |  Jaguar version 9.3, release  15                                   |
  |                                                                    |
  |  Copyright Schrodinger, Inc.                                       |
  |  All Rights Reserved.                                              |
  |                                                                    |
  |  The following have contributed to Jaguar (listed alphabetically): |
  |  Mike Beachy, Art Bochevarov, Dale Braden, Yixiang Cao,            |
  |  Chris Cortis, Rich Friesner, Bill Goddard, Hod Greeley,           |
  |  Tom Hughes, Leif Jacobson, Jean-Marc Langlois,                    |
  |  Daniel Mainz, Rob Murphy, Dean Philipp,                           |
  |  Tom Pollard, Murco Ringnalda, Mark Watson.                        |
  |                                                                    |
  |  Use of this program should be acknowledged in publications as:    |
  |                                                                    |
  |  Jaguar, version 9.3, Schrodinger, Inc., New York, NY, 2016.       |
  |                                                                    |
  |  A. D. Bochevarov, E. Harder, T. F. Hughes, J. R. Greenwood,       |
  |  D. A. Braden, D. M. Philipp, D. Rinaldo, M. D. Halls,             |
  |  J. Zhang, R. A. Friesner, "Jaguar: A High-Performance Quantum     |
  |  Chemistry Software Program with Strengths in Life and Materials   |
  |  Sciences", Int. J. Quantum Chem., 2013, 113(18), 2110-2142.       |
  +--------------------------------------------------------------------+
  
  start of program pre
  
  Job name: estradiol_1
  Executables used: /home/applications/Schrodinger_Suites_2016-3/jaguar-v9.3/bin/Linux-x86_64
  Temporary files : /scratch/Schrodinger_Suites/pbeni001/estradiol_1#u01-0-5873026a
  Maestro file (input):  estradiol_1.mae
  Maestro file (output): estradiol_1.01.mae
  
  basis set:             6-31g                           
  net molecular charge:    1
  multiplicity:            2
  
  Using up to  16 threads per process
  
  number of basis functions....          228
  
 Input geometry:
                                   angstroms
  atom               x                 y                 z
  C1            0.6744553000     -0.0860081000     -0.0340968000 
  C2            2.1369531000      0.1632050000     -0.0519846000 
  C3            2.4943014000      0.7857076000      1.5771566000 
  C4            2.2622038000     -0.1282308000      2.7145168000 
  C5            3.0314039000     -1.4194637000      2.5465654000 
  H6            4.1128216000     -1.3182465000      2.7156702000 
  C7            2.5113077000     -2.3507070000      3.6122650000 
  C8            2.2602566000     -1.8150584000      4.8938008000 
  C9            1.7192836000     -2.5500949000      5.9201629000 
  C10           1.4668730000     -3.8914747000      5.6945001000 
  C11           1.7398334000     -4.4701502000      4.4478037000 
  C12           2.2704449000     -3.7058065000      3.3836774000 
  C13           2.5465664000     -4.2927637000      2.0194616000 
  C14           3.3293936000     -3.3354685000      0.9948210000 
  C15           2.8936148000     -1.7972947000      1.0852786000 
  H16           1.8334210000     -1.9459816000      0.8302622000 
  C17           3.5002985000     -0.4572581000      0.0476301000 
  H18           3.8245756000     -1.0041969000     -0.8276156000 
  C19           3.6947684000      1.5074774000     -0.2244050000 
  C20           2.7463258000      1.9953425000     -1.3902612000 
  C21           2.6201592000      0.6052010000     -1.6308541000 
  H22           3.6635727000      0.3616169000     -1.9792992000 
  O23           1.8366820000      0.0913858000     -2.6755566000 
  O24           0.9577721000     -4.6572654000      6.6985132000 
  H25           0.3093690000     -0.6297758000      0.8380027000 
  H26           0.2983531000     -0.5914090000     -0.9232640000 
  H27           0.1846952000      0.9002646000      0.0058985000 
  H28           2.0165671000      1.7394591000      1.8041576000 
  H29           3.6026906000      0.9273786000      1.7564579000 
  H30           1.1889513000     -0.2800047000      2.8128009000 
  H31           2.6442100000      0.4025329000      3.5927200000 
  H32           2.4603278000     -0.7671838000      5.1068788000 
  H33           1.5141524000     -2.0525704000      6.8600810000 
  H34           1.5266357000     -5.5321185000      4.3262811000 
  H35           1.5834857000     -4.6143372000      1.5922676000 
  H36           3.1259738000     -5.2192356000      2.1671247000 
  H37           3.1580659000     -3.7641522000     -0.0027596000 
  H38           4.3935245000     -3.4400538000      1.2216747000 
  H39           4.7065471000      1.8690878000     -0.2230270000 
  H40           3.2322804000      2.2372704000      0.4721783000 
  H41           3.1931918000      2.6501891000     -2.1561035000 
  H42           1.7302421000      2.3806607000     -1.1702837000 
  H43           1.5774519000     -0.7845958000     -2.3797770000 
  H44           0.8492216000     -4.0916242000      7.4841648000 
   
  principal moments of inertia:
        amu*angstrom^2:      561.38836     2977.89875     3215.68047
                g*cm^2: 9.32207195E-38 4.94491660E-37 5.33976238E-37
   
  rotational constants:
               cm^(-1):      0.03002846      0.00566091      0.00524232
                   GHz:      0.90023064      0.16970994      0.15716083
   
  Molecular weight:     272.18 amu
   
  Stoichiometry: C18H24O2
  Molecular Point Group: C1      
  Point Group used: C1
  
 
Number of optimization coordinates:   145
Number of independent coordinates:    145
Number of non-redundant coordinates:  126
Number of frozen coordinates:           0
Number of harmonic constraints:         0
 
Number of geometric degrees of freedom:   126
Maximum geometric degrees of freedom:     126
 " " " " " excluding dummy atoms:         126
 
  nuclear repulsion energy.......    1609.812856401 hartrees
 
 Non-default options chosen:
   SCF calculation type: UDFT(b3lyp)                 
   UDFT=Becke_3_Parameter/HF+Slater+Becke88+VWN+LYP (B3LYP)
   Geometry will be optimized in redundant internal coordinates
   Electrostatic potential fit to point charges on atomic centers
   Electrostatic potential fitting constrained to reproduce
     total charge:                yes
     dipole moment:               yes
     traceless quadrupole moment: no 
     traceless octapole moment:   no 
  
 Temporary integer options set:
     73=  2
  
  Peak memory usage:   4803 Mb
  
  end of program pre
   
 Time(pre)  user:        8.7  user+sys:        8.7  wallclock:        1.0
  
  start of program onee
  
  smallest eigenvalue of S:    4.932E-04
  number of canonical orbitals.....          227
  Peak memory usage:   4838 Mb
  
  end of program onee
   
 Time(onee)  user:        4.1  user+sys:        4.1  wallclock:        0.5
  
  start of program hfig
  
  initial wavefunction generated automatically from atomic wavefunctions
  
  -------------------
  Alpha orbital space
  -------------------
 
  Irreducible     Total no   No of occupied orbitals 
  representation  orbitals   Shell_1  Shell_2    ...
  No Symm          227         74
  ------------------------
  Orbital occupation/shell    1.000
 
  ------------------
  Beta orbital space
  ------------------
 
  Irreducible     Total no   No of occupied orbitals 
  representation  orbitals   Shell_1  Shell_2    ...
  No Symm          227         73
  ------------------------
  Orbital occupation/shell    1.000
 
  
  
    Unrestricted Spin Properties ...
    Sz*(Sz+1) ..............     0.750
    <S**2> of initial guess      0.750
  
  
  Peak memory usage:   4756 Mb
  
  end of program hfig
   
 Time(hfig)  user:        6.4  user+sys:        6.4  wallclock:        0.7
  
  start of program probe
  
  Peak memory usage:   4756 Mb
  
  end of program probe
   
 Time(probe)  user:        1.8  user+sys:        1.8  wallclock:        0.5
  
  start of program grid
  
   grid     grid set  grid #  grid sym
  ------    --------  ------  --------
  coarse        0        0        1
  medium        2        1        1
  fine          0        0        1
  ultrafine     4        2        1
  charge       -1        3        1
  gradient      4        2        1
  density       0        0        1
  DFT-fine    -11        4        1
  DFT-med.    -10        5        1
  DFT-grad    -12        6        1
  DFT-der2      0        0        1
  DFT-cphf      0        0        1
  LMP2-enrg     4        2        1
  LMP2-grad     2        1        1
  DFT-cphf2     0        0        1
  PBF-dens      0        0        1
  plotting      0        0        1
  Rel-grad    -17        0        1
  
  number of gridpoints: 
     atom        C1       C2       C3       C4       C5       H6       C7
  grid # 1       78       99       85       84       90      108       98
  grid # 2      266      347      299      278      310      431      357
  grid # 3        6        6        6        6        6      711       82
  grid # 4     4304     4304     4304     4304     4304     4304     4304
  grid # 5     1192     1192     1192     1192     1192     1192     1192
  grid # 6     5226     5226     5226     5226     5226     5226     5226
   
  number of gridpoints: 
     atom        C8       C9      C10      C11      C12      C13      C14
  grid # 1       94       97       97       97       99       86       84
  grid # 2      339      332      353      336      360      294      293
  grid # 3      156      217      236      213      135        6        6
  grid # 4     4304     4304     4304     4304     4304     4304     4304
  grid # 5     1192     1192     1192     1192     1192     1192     1192
  grid # 6     5226     5226     5226     5226     5226     5226     5226
   
  number of gridpoints: 
     atom       C15      H16      C17      H18      C19      C20      C21
  grid # 1       95      100       95      105       83       84       86
  grid # 2      331      402      341      416      306      287      314
  grid # 3        6      225       57      579        6        6        6
  grid # 4     4304     4304     4304     4304     4304     4304     4304
  grid # 5     1192     1192     1192     1192     1192     1192     1192
  grid # 6     5226     5226     5226     5226     5226     5226     5226
   
  number of gridpoints: 
     atom       H22      O23      O24      H25      H26      H27      H28
  grid # 1      101      110      114      101      105      106      107
  grid # 2      412      429      427      411      421      427      420
  grid # 3      561      720      840      525      674      759      664
  grid # 4     4304     4304     4304     4304     4304     4304     4304
  grid # 5     1192     1192     1192     1192     1192     1192     1192
  grid # 6     5226     5226     5226     5226     5226     5226     5226
   
  number of gridpoints: 
     atom       H29      H30      H31      H32      H33      H34      H35
  grid # 1      101      107      105      108      116      116      110
  grid # 2      403      418      409      426      439      446      436
  grid # 3      371      542      528      715     1119     1103      877
  grid # 4     4304     4304     4304     4304     4304     4304     4304
  grid # 5     1192     1192     1192     1192     1192     1192     1192
  grid # 6     5226     5226     5226     5226     5226     5226     5226
   
  number of gridpoints: 
     atom       H36      H37      H38      H39      H40      H41      H42
  grid # 1      110      111      110      113       99      112      106
  grid # 2      434      435      439      440      395      448      426
  grid # 3      907      859      850     1035      408     1139      713
  grid # 4     4304     4304     4304     4304     4304     4304     4304
  grid # 5     1192     1192     1192     1192     1192     1192     1192
  grid # 6     5226     5226     5226     5226     5226     5226     5226
   
  number of gridpoints: 
     atom       H43      H44    total
  grid # 1      107      112     4431
  grid # 2      423      441    16797
  grid # 3      767     1237    20590
  grid # 4     4304     4304   189376
  grid # 5     1192     1192    52448
  grid # 6     5226     5226   229944
   
  Peak memory usage:   4789 Mb
  
  end of program grid
   
 Time(grid)  user:       32.1  user+sys:       32.1  wallclock:        2.4
  
  start of program rwr
  
  Peak memory usage:   4745 Mb
  
  end of program rwr
   
 Time(rwr)  user:       52.7  user+sys:       52.7  wallclock:        4.9
  
  start of program scf
  
 number of electrons..........        147
 number of alpha electrons....         74
 number of beta electrons.....         73
 number of alpha orbitals.....        227
 number of beta orbitals......        227
 number of alpha occupied orb..        74
 number of alpha virtual orb...       153
 number of beta occupied orb...        73
 number of beta virtual orb....       154
 SCF type: UDFT=Becke_3_Parameter/HF+Slater+Becke88+VWN+LYP (B3LYP)
 Energy computed with NOPS off.
  
       i  u  d  i  g                   
       t  p  i  c  r                                 RMS    maximum
       e  d  i  u  i                       energy  density   DIIS  
       r  t  s  t  d       total energy    change  change    error 
  
etot    1  N  N  5  M    -847.10273184792           1.6E-02  1.1E-01
etot    2  Y  Y  6  M    -840.86802069308 -6.2E+00  2.4E-02  2.9E-01
etot    3  Y  Y  6  M    -833.94510811070 -6.9E+00  2.0E-02  5.7E-01
etot    4  N  Y  2  U    -849.35446052445  1.5E+01  7.7E-03  1.2E-01
etot    5  Y  Y  6  M    -849.43792404369  8.3E-02  3.8E-03  1.1E-01
etot    6  N  Y  2  U    -849.77480628387  3.4E-01  8.4E-04  2.8E-02
etot    7  Y  Y  6  M    -849.80528477500  3.0E-02  7.4E-04  1.5E-02
etot    8  N  Y  2  U    -849.81713920255  1.2E-02  2.0E-03  1.8E-02
etot    9  Y  Y  6  M    -849.83019398064  1.3E-02  5.5E-04  1.3E-02
etot   10  N  Y  2  U    -849.83079638710  6.0E-04  3.3E-04  1.6E-02
etot   11  Y  Y  6  M    -849.83536924018  4.6E-03  3.7E-04  7.1E-03
etot   12  Y  Y  6  M    -849.83434152167 -1.0E-03  3.5E-04  1.2E-02
etot   13  N  Y  2  U    -849.83691576109  2.6E-03  3.7E-05  1.4E-03
etot   14  N  Y  2  U    -849.83696414514  4.8E-05  3.7E-05  1.1E-03
etot   15  N  Y  2  U    -849.83698861518  2.4E-05  2.4E-05  2.1E-04
etot   16  N  Y  2  U    -849.83699190244  3.3E-06  1.2E-05  1.7E-04
etot   17  N  Y  2  U    -849.83699308389  1.2E-06  9.1E-06  1.1E-04
etot   18  N  Y  2  U    -849.83699358904  5.1E-07  7.2E-06  4.7E-05
etot   19  N  Y  2  U    -849.83699374689  1.6E-07  2.1E-06  2.6E-05
etot   20  N  N  2  U    -849.83699379253  4.6E-08  0.0E+00  0.0E+00
  
  
 Energy components, in hartrees:
   (A)  Nuclear repulsion............    1609.81285640083
   (E)  Total one-electron terms.....   -4329.27841301184
   (I)  Total two-electron terms.....    1869.62856281848
   (L)  Electronic energy............   -2459.64985019336  (E+I)
   (N)  Total energy.................    -849.83699379253  (A+L)
   (O)  Gas phase energy.............    -849.83699379253
  
                                 Total             Coulomb       Exchange+Corr.
 Total two-electron terms    1869.62856281848    1993.24574275000    -123.61717993151
   Hamiltonian  1........     959.19372507420    1003.23903191117     -44.04530683697
   Hamiltonian  2........     946.38526141097     990.00671083882     -43.62144942786
  
 SCFE: SCF energy: UDFT(b3lyp)      -849.83699379253 hartrees   iterations:  20
  
 
 Alpha HOMO energy:    -0.35025
 Alpha LUMO energy:    -0.20119
 
  Alpha Orbital energies (hartrees): 
   -19.30647   -19.28299   -10.39676   -10.39413   -10.38577   -10.38459
   -10.36020   -10.34907   -10.33406   -10.32745   -10.32688   -10.32558
   -10.32125   -10.32079   -10.31645   -10.31608   -10.31449   -10.31323
   -10.31294   -10.30799    -1.20604    -1.18628    -1.04271    -1.00769
    -0.97081    -0.92826    -0.91935    -0.88785    -0.87999    -0.85965
    -0.84847    -0.80950    -0.76816    -0.76097    -0.74643    -0.72649
    -0.71243    -0.70844    -0.68548    -0.66623    -0.65246    -0.64000
    -0.63118    -0.61624    -0.61123    -0.60143    -0.58336    -0.57470
    -0.56907    -0.56506    -0.55233    -0.54766    -0.54349    -0.54014
    -0.53753    -0.53070    -0.51485    -0.51099    -0.50290    -0.50008
    -0.48812    -0.48525    -0.47372    -0.46809    -0.46145    -0.45100
    -0.44617    -0.43524    -0.42226    -0.39994    -0.37621    -0.37346
    -0.36653    -0.35025    -0.20119    -0.13339    -0.12698    -0.11598
    -0.07009    -0.04635    -0.04582    -0.04353    -0.03554    -0.02802
 
 
 Beta HOMO energy:    -0.33152
 Beta LUMO energy:    -0.30878
 
  Beta Orbital energies (hartrees): 
   -19.30421   -19.28208   -10.39493   -10.38998   -10.38421   -10.38348
   -10.35952   -10.34805   -10.33315   -10.32754   -10.32506   -10.32494
   -10.32110   -10.32043   -10.31604   -10.31597   -10.31434   -10.31287
   -10.31224   -10.30765    -1.20132    -1.18373    -1.03571    -1.00472
    -0.96829    -0.92555    -0.91592    -0.88598    -0.87593    -0.85570
    -0.84650    -0.80724    -0.76605    -0.75898    -0.74299    -0.72376
    -0.71044    -0.70438    -0.68278    -0.66375    -0.65083    -0.63645
    -0.62935    -0.61288    -0.60810    -0.59851    -0.58128    -0.57266
    -0.56654    -0.56186    -0.54995    -0.54552    -0.53985    -0.53574
    -0.53502    -0.52711    -0.51207    -0.50698    -0.50101    -0.49686
    -0.48593    -0.48270    -0.47182    -0.46465    -0.45630    -0.44754
    -0.43886    -0.43255    -0.42004    -0.39793    -0.37241    -0.37059
    -0.33152    -0.30878    -0.19824    -0.12770    -0.11298    -0.10606
    -0.06874    -0.04563    -0.04496    -0.04236    -0.03284
 
  
  
    Unrestricted Spin Properties ...
    Sz*(Sz+1)      0.750
    <S**2> ...     0.754
  
  
  Peak memory usage:   6748 Mb
  
  end of program scf
   
 Time(scf)  user:      408.3  user+sys:      408.3  wallclock:       27.7
  
  start of program der1a
  
  Peak memory usage:   4838 Mb
  
  end of program der1a
   
 Time(der1a)  user:        3.4  user+sys:        3.4  wallclock:        0.5
  
  start of program rwr
  
  Peak memory usage:   4745 Mb
  
  end of program rwr
   
 Time(rwr)  user:       38.9  user+sys:       38.9  wallclock:        5.2
  
  start of program der1b
  
   
  forces (hartrees/bohr) : total     
   
 atom  label           x              y              z
 ---- --------   -------------  -------------  -------------
    1 C1         -2.250841E-02  -3.856794E-03  -4.635064E-03
    2 C2          1.461238E-02  -1.217165E-03   2.792722E-02
    3 C3          5.198213E-03   1.986464E-02   3.403398E-02
    4 C4         -2.206864E-02   9.732912E-03   5.212994E-03
    5 C5          2.628603E-03  -8.918623E-04   4.669266E-03
    6 H6          3.592055E-04   1.001416E-02   2.056418E-03
    7 C7          3.534962E-03   7.880535E-04   1.407475E-03
    8 C8         -1.056373E-03   1.575123E-02   4.116971E-03
    9 C9          8.928499E-03   1.870401E-02  -2.030773E-03
   10 C10        -6.863730E-04  -1.173495E-02  -4.336109E-03
   11 C11         3.254599E-03  -1.004415E-02  -1.313984E-02
   12 C12        -9.182028E-03  -7.191531E-03   9.185188E-03
   13 C13        -1.466605E-03   6.193720E-03  -4.810070E-03
   14 C14         1.286535E-02   3.249758E-04  -3.489110E-03
   15 C15         1.908689E-02  -4.895451E-02   2.859126E-02
   16 H16         3.263457E-03   1.820865E-02  -3.940710E-03
   17 C17        -3.144454E-02  -5.953862E-02   2.555384E-04
   18 H18         1.412290E-02   3.704830E-04  -1.627096E-03
   19 C19         3.565167E-02   9.853595E-02   1.289597E-02
   20 C20        -3.153705E-03   2.831654E-02  -2.042104E-02
   21 C21         7.048225E-03  -8.289383E-03  -7.729138E-02
   22 H22        -1.617282E-02  -1.544183E-02   1.680938E-02
   23 O23        -2.687964E-02   8.724194E-03   5.475170E-03
   24 O24        -2.148273E-03  -6.283443E-03  -1.895857E-03
   25 H25         2.109151E-03   2.092430E-04   1.688095E-03
   26 H26        -2.237182E-03  -1.053007E-03  -2.266520E-03
   27 H27        -1.340045E-03  -2.664759E-03  -2.812820E-03
   28 H28        -9.493129E-03   3.642399E-03  -8.186558E-03
   29 H29        -2.614822E-02   3.221053E-03  -1.662268E-02
   30 H30        -4.032904E-03  -1.014651E-02   1.228126E-02
   31 H31        -7.315420E-03   3.761418E-03   1.006574E-03
   32 H32         1.121581E-05  -4.177379E-03  -2.644380E-03
   33 H33        -7.012598E-04  -3.694472E-03   3.784778E-03
   34 H34         1.435787E-03   3.137678E-03  -3.277245E-04
   35 H35         2.426519E-03   2.219809E-03  -3.771333E-03
   36 H36         1.145317E-03   3.966373E-03  -6.543945E-03
   37 H37         2.392647E-03   4.593418E-03   5.202430E-04
   38 H38         3.423870E-03   1.192794E-03  -1.655156E-03
   39 H39         2.126803E-02  -1.201057E-02  -1.617078E-02
   40 H40         1.956684E-02  -2.644734E-02   1.184982E-02
   41 H41         3.719758E-03  -9.231320E-03   2.075702E-03
   42 H42         1.488373E-02   1.126855E-02   1.593593E-02
   43 H43        -1.007674E-02  -2.426257E-02  -1.333251E-02
   44 H44        -4.365884E-03  -5.299062E-03   9.550004E-03
 -------------   -------------  -------------  -------------
     total        4.596313E-04   3.110382E-04  -6.222166E-04
   
  Peak memory usage:   6742 Mb
  
  end of program der1b
   
 Time(der1b)  user:       65.0  user+sys:       65.0  wallclock:        4.5
  
  start of program geopt
  
 ----------------------------------------------------------------------------
  Geometry optimization step  1
  Total energy:      -849.83699379253 hartrees
 ----------------------------------------------------------------------------
  
  
  Level shifts adjusted to satisfy step-size constraints
   Step size:    0.3000966
   Cos(theta):   0.9039387
   Final level shift:  -9.3010412E-01
  
  gradient maximum:        2.6558E-01 .  (  4.5000E-04 )
  gradient rms:            4.3088E-02 .  (  3.0000E-04 )
  displacement maximum:    1.1234E-01 .  (  1.8000E-03 )
  displacement rms:        2.3308E-02 .  (  1.2000E-03 )
  
  predicted energy change:  -1.0671E-01
  step size:     0.28066
  trust radius:  0.30000
  
  molecular structure not yet converged...
  
  center of mass moved by:
     x:    -2.7919E-02     y:    -1.9619E-02     z:     1.5143E-02
  
  new geometry: 
                                   angstroms
  atom               x                 y                 z
  C1            0.5771789435      0.0422364008     -0.0314676082 
  C2            2.0570695459      0.2457985265     -0.0300878467 
  C3            2.4151709981      0.8789531022      1.6009609286 
  C4            2.1464984658     -0.0282579932      2.7627436507 
  C5            2.9440185379     -1.3238870510      2.6290841585 
  H6            4.0169121454     -1.1855456354      2.8276551715 
  C7            2.4682019062     -2.3111974530      3.6755603792 
  C8            2.1601608089     -1.8406444780      4.9738400427 
  C9            1.6647413077     -2.6655277898      5.9612814952 
  C10           1.5231341606     -4.0229956232      5.6776665240 
  C11           1.8581064080     -4.5292100588      4.4153213474 
  C12           2.3363948450     -3.6810785426      3.3983448653 
  C13           2.6804618719     -4.2223765810      2.0291138392 
  C14           3.4080817626     -3.2046769836      1.0409817332 
  C15           2.8449302116     -1.7225776462      1.1683954315 
  H16           1.7937620458     -1.8708618076      0.8851543673 
  C17           3.4147017598     -0.4132794468      0.0963041749 
  H18           3.7605411945     -0.9759418577     -0.7631747682 
  C19           3.9862811125      1.3897799056     -0.4768861918 
  C20           2.9259938152      1.9416256347     -1.5358868774 
  C21           2.5389135110      0.5552195375     -1.6634513951 
  H22           3.5535015618      0.2083671420     -1.9875554351 
  O23           1.6514515238      0.0508829159     -2.6443153033 
  O24           1.0614457119     -4.8900661803      6.6280669114 
  H25           0.1852814752     -0.4728816468      0.8466361894 
  H26           0.1967917362     -0.4693360501     -0.9167464349 
  H27           0.1150294867      1.0416839567     -0.0230695851 
  H28           1.9369205016      1.8412538336      1.7994509246 
  H29           3.5153188283      1.0218507420      1.7576729027 
  H30           1.0715579758     -0.1843578615      2.8637905330 
  H31           2.5044688896      0.5189966811      3.6409868637 
  H32           2.2836018383     -0.7913329088      5.2255336745 
  H33           1.4063158284     -2.2356293830      6.9219687243 
  H34           1.7341745638     -5.5979208564      4.2488986062 
  H35           1.7550315596     -4.6056685412      1.5719891590 
  H36           3.3263101520     -5.1043292452      2.1624577868 
  H37           3.2889772873     -3.6207742650      0.0316868803 
  H38           4.4747325733     -3.2348747851      1.2830029554 
  H39           5.0300221208      1.5898276987     -0.6724189528 
  H40           3.7770494840      2.1848802569      0.2578952843 
  H41           3.4255704467      2.4183017118     -2.3923462822 
  H42           2.0620726074      2.5401157168     -1.1909800345 
  H43           1.3118691904     -0.7882168358     -2.3035947048 
  H44           0.8845294842     -4.3952792488      7.4504372989 
   
  nuclear repulsion energy.......    1594.874457392 hartrees
  -------------------------------------------------
 /  end of geometry optimization iteration   1   /
 -------------------------------------------------
   
  Peak memory usage:   4727 Mb
  
  end of program geopt
   
 Time(geopt)  user:        4.7  user+sys:        4.7  wallclock:        0.4
  
  start of program onee
  
  smallest eigenvalue of S:    5.101E-04
  number of canonical orbitals.....          228
  Peak memory usage:   4838 Mb
  
  end of program onee
   
 Time(onee)  user:        1.4  user+sys:        1.4  wallclock:        0.5
  
  start of program probe
  
  Peak memory usage:   4756 Mb
  
  end of program probe
   
 Time(probe)  user:        2.4  user+sys:        2.4  wallclock:        0.4
  
  start of program grid
  
   grid     grid set  grid #  grid sym
  ------    --------  ------  --------
  coarse        0        0        1
  medium        2        1        1
  fine          0        0        1
  ultrafine     4        2        1
  charge       -1        3        1
  gradient      4        2        1
  density       0        0        1
  DFT-fine    -11        4        1
  DFT-med.    -10        5        1
  DFT-grad    -12        6        1
  DFT-der2      0        0        1
  DFT-cphf      0        0        1
  LMP2-enrg     4        2        1
  LMP2-grad     2        1        1
  DFT-cphf2     0        0        1
  PBF-dens      0        0        1
  plotting      0        0        1
  Rel-grad    -17        0        1
  
  number of gridpoints: 
     atom        C1       C2       C3       C4       C5       H6       C7
  grid # 1       79      100       86       84       91      108       98
  grid # 2      264      354      302      284      313      430      358
  grid # 3        6        6        6        6        6      690       91
  grid # 4     4304     4304     4304     4304     4304     4304     4304
  grid # 5     1192     1192     1192     1192     1192     1192     1192
  grid # 6     5226     5226     5226     5226     5226     5226     5226
   
  number of gridpoints: 
     atom        C8       C9      C10      C11      C12      C13      C14
  grid # 1       96       97       97       97      101       86       86
  grid # 2      339      331      353      336      364      292      294
  grid # 3      163      224      238      213      144        6        6
  grid # 4     4304     4304     4304     4304     4304     4304     4304
  grid # 5     1192     1192     1192     1192     1192     1192     1192
  grid # 6     5226     5226     5226     5226     5226     5226     5226
   
  number of gridpoints: 
     atom       C15      H16      C17      H18      C19      C20      C21
  grid # 1       92      101       94      104       86       83       88
  grid # 2      330      408      338      409      301      291      315
  grid # 3        6      256       51      494        7        6        6
  grid # 4     4304     4304     4304     4304     4304     4304     4304
  grid # 5     1192     1192     1192     1192     1192     1192     1192
  grid # 6     5226     5226     5226     5226     5226     5226     5226
   
  number of gridpoints: 
     atom       H22      O23      O24      H25      H26      H27      H28
  grid # 1       98      112      114      103      104      106      108
  grid # 2      406      432      427      413      414      432      429
  grid # 3      486      743      832      547      616      811      732
  grid # 4     4304     4304     4304     4304     4304     4304     4304
  grid # 5     1192     1192     1192     1192     1192     1192     1192
  grid # 6     5226     5226     5226     5226     5226     5226     5226
   
  number of gridpoints: 
     atom       H29      H30      H31      H32      H33      H34      H35
  grid # 1      103      107      105      108      116      116      110
  grid # 2      408      422      413      431      440      446      434
  grid # 3      377      569      568      758     1133     1080      884
  grid # 4     4304     4304     4304     4304     4304     4304     4304
  grid # 5     1192     1192     1192     1192     1192     1192     1192
  grid # 6     5226     5226     5226     5226     5226     5226     5226
   
  number of gridpoints: 
     atom       H36      H37      H38      H39      H40      H41      H42
  grid # 1      109      111      110      113      104      111      108
  grid # 2      434      436      440      443      407      446      433
  grid # 3      895      835      838     1086      509     1110      780
  grid # 4     4304     4304     4304     4304     4304     4304     4304
  grid # 5     1192     1192     1192     1192     1192     1192     1192
  grid # 6     5226     5226     5226     5226     5226     5226     5226
   
  number of gridpoints: 
     atom       H43      H44    total
  grid # 1      110      112     4452
  grid # 2      420      445    16857
  grid # 3      788     1265    20873
  grid # 4     4304     4304   189376
  grid # 5     1192     1192    52448
  grid # 6     5226     5226   229944
   
  Peak memory usage:   4789 Mb
  
  end of program grid
   
 Time(grid)  user:       29.6  user+sys:       29.6  wallclock:        2.4
  
  start of program rwr
  
  Peak memory usage:   4745 Mb
  
  end of program rwr
   
 Time(rwr)  user:       52.8  user+sys:       52.8  wallclock:        4.9
  
  start of program scf
  
 Energy computed with NOPS off.
  
       i  u  d  i  g                   
       t  p  i  c  r                                 RMS    maximum
       e  d  i  u  i                       energy  density   DIIS  
       r  t  s  t  d       total energy    change  change    error 
  
etot    1  N  N  2  U    -849.85942736898           2.3E-03  2.6E-02
etot    2  Y  Y  6  M    -849.92868821124  6.9E-02  1.2E-03  6.7E-03
etot    3  N  Y  2  U    -849.91761412616 -1.1E-02  1.5E-03  3.5E-02
etot    4  N  Y  2  U    -849.92865280617  1.1E-02  5.7E-04  1.8E-02
etot    5  Y  Y  6  M    -849.93418602366  5.5E-03  8.2E-05  1.4E-03
etot    6  N  Y  2  U    -849.93419753194  1.2E-05  4.4E-05  5.7E-04
etot    7  N  Y  2  U    -849.93422347076  2.6E-05  3.7E-05  4.2E-04
etot    8  N  Y  2  U    -849.93423472039  1.1E-05  2.6E-05  2.5E-04
etot    9  N  Y  2  U    -849.93424060251  5.9E-06  1.8E-05  1.6E-04
etot   10  N  Y  2  U    -849.93424290445  2.3E-06  8.2E-06  6.3E-05
etot   11  N  Y  2  U    -849.93424348430  5.8E-07  5.1E-06  4.5E-05
etot   12  N  Y  2  U    -849.93424372080  2.4E-07  2.9E-06  3.0E-05
etot   13  N  N  2  U    -849.93424381058  9.0E-08  0.0E+00  0.0E+00
  
  
 Energy components, in hartrees:
   (A)  Nuclear repulsion............    1594.87445739198
   (E)  Total one-electron terms.....   -4299.83679317869
   (I)  Total two-electron terms.....    1855.02809197613
   (L)  Electronic energy............   -2444.80870120256  (E+I)
   (N)  Total energy.................    -849.93424381058  (A+L)
   (O)  Gas phase energy.............    -849.93424381058
  
                                 Total             Coulomb       Exchange+Corr.
 Total two-electron terms    1855.02809197613    1978.53441571152    -123.50632373539
   Hamiltonian  1........     951.85100376861     995.85503705464     -44.00403328602
   Hamiltonian  2........     939.09769194055     982.67937865689     -43.58168671634
  
 SCFE: SCF energy: UDFT(b3lyp)      -849.93424381058 hartrees   iterations:  13
  
 
 Alpha HOMO energy:    -0.35177
 Alpha LUMO energy:    -0.17966
 
  Alpha Orbital energies (hartrees): 
   -19.30780   -19.28325   -10.39814   -10.39151   -10.38690   -10.38476
   -10.35321   -10.34481   -10.33400   -10.33132   -10.32888   -10.32548
   -10.32353   -10.32352   -10.31936   -10.31644   -10.31627   -10.31557
   -10.31379   -10.31316    -1.20365    -1.17733    -1.02234    -1.00383
    -0.96663    -0.92714    -0.91583    -0.88558    -0.87789    -0.85330
    -0.84459    -0.79667    -0.76834    -0.76049    -0.74701    -0.72725
    -0.70820    -0.70484    -0.68406    -0.66380    -0.65212    -0.63399
    -0.62739    -0.61093    -0.60895    -0.59696    -0.58108    -0.57462
    -0.56252    -0.55892    -0.55072    -0.54608    -0.54131    -0.53834
    -0.53658    -0.52307    -0.51439    -0.51008    -0.50171    -0.49675
    -0.48989    -0.48476    -0.47467    -0.46682    -0.45951    -0.45301
    -0.44705    -0.43945    -0.43390    -0.40383    -0.38492    -0.37505
    -0.36947    -0.35177    -0.17966    -0.13509    -0.13138    -0.11963
    -0.06792    -0.04715    -0.04145    -0.03884    -0.02777    -0.02319
 
 
 Beta HOMO energy:    -0.33332
 Beta LUMO energy:    -0.30929
 
  Beta Orbital energies (hartrees): 
   -19.30555   -19.28229   -10.39624   -10.38695   -10.38577   -10.38293
   -10.35224   -10.34454   -10.33372   -10.32941   -10.32895   -10.32531
   -10.32330   -10.32297   -10.31928   -10.31605   -10.31593   -10.31523
   -10.31363   -10.31250    -1.19893    -1.17474    -1.01645    -1.00000
    -0.96416    -0.92493    -0.91194    -0.88384    -0.87374    -0.84975
    -0.84241    -0.79454    -0.76641    -0.75854    -0.74397    -0.72519
    -0.70585    -0.70120    -0.68027    -0.66125    -0.65019    -0.63043
    -0.62562    -0.60926    -0.60543    -0.59376    -0.57904    -0.57276
    -0.55924    -0.55613    -0.54893    -0.54408    -0.53766    -0.53495
    -0.53182    -0.51998    -0.51130    -0.50677    -0.49904    -0.49430
    -0.48790    -0.48176    -0.47283    -0.46324    -0.45538    -0.44918
    -0.43897    -0.43728    -0.43190    -0.40191    -0.38041    -0.37263
    -0.33332    -0.30929    -0.17574    -0.12847    -0.11814    -0.11000
    -0.06670    -0.04636    -0.04063    -0.03745    -0.02640
 
  
  
    Unrestricted Spin Properties ...
    Sz*(Sz+1)      0.750
    <S**2> ...     0.754
  
  
  Peak memory usage:   6748 Mb
  
  end of program scf
   
 Time(scf)  user:      307.2  user+sys:      307.2  wallclock:       20.8
  
  start of program der1a
  
  Peak memory usage:   4838 Mb
  
  end of program der1a
   
 Time(der1a)  user:        3.5  user+sys:        3.5  wallclock:        0.5
  
  start of program rwr
  
  Peak memory usage:   4745 Mb
  
  end of program rwr
   
 Time(rwr)  user:       39.1  user+sys:       39.1  wallclock:        5.2
  
  start of program der1b
  
   
  forces (hartrees/bohr) : total     
   
 atom  label           x              y              z
 ---- --------   -------------  -------------  -------------
    1 C1         -1.381066E-02  -9.342458E-03  -1.414794E-03
    2 C2          1.378306E-02   6.417450E-03   2.556049E-02
    3 C3          7.281656E-03   3.818904E-02  -6.839822E-04
    4 C4         -1.207957E-02   4.183708E-03   3.328868E-03
    5 C5          2.095909E-03   2.539951E-03   6.249803E-03
    6 H6          1.860564E-04   9.961134E-03  -1.655578E-04
    7 C7         -1.026450E-03   1.290662E-03  -1.302439E-03
    8 C8         -3.838786E-03   1.038427E-02   9.275115E-04
    9 C9          6.136899E-03   1.191370E-02  -1.539276E-03
   10 C10        -8.196524E-04  -7.482724E-03  -1.186551E-03
   11 C11         3.787587E-03  -5.534021E-03  -1.009778E-02
   12 C12        -5.851887E-03  -6.377443E-03   5.648257E-03
   13 C13        -8.323478E-04   5.142435E-03  -5.905479E-03
   14 C14         5.562393E-03   4.126862E-03  -4.900829E-04
   15 C15         2.491985E-02  -3.772222E-02   1.480978E-02
   16 H16         1.979777E-03   1.121104E-02  -1.927298E-03
   17 C17        -8.668585E-03  -4.394080E-02  -2.040466E-02
   18 H18         6.839434E-03  -9.123799E-03   4.290603E-03
   19 C19         2.227080E-02   6.563186E-02   4.820248E-02
   20 C20        -3.312308E-03   1.048020E-02  -1.400905E-03
   21 C21        -4.660111E-03  -3.313232E-03  -5.966843E-02
   22 H22        -2.136379E-02  -2.611010E-02   7.130526E-03
   23 O23        -1.506446E-02   1.608762E-02   9.883445E-03
   24 O24        -2.987950E-04  -9.356519E-04  -2.330889E-03
   25 H25         1.436325E-03  -5.886215E-04   2.392778E-03
   26 H26        -2.692763E-03  -3.724374E-04   9.585527E-04
   27 H27         8.698005E-05  -1.599265E-03  -1.912119E-03
   28 H28        -6.752956E-03   3.224357E-03  -8.385519E-03
   29 H29        -1.846095E-02   4.797934E-03  -1.868527E-02
   30 H30        -2.322145E-03  -8.706568E-03   7.594259E-03
   31 H31        -5.702832E-03   3.213308E-03   1.614326E-03
   32 H32        -2.030306E-04  -1.642129E-03  -2.732683E-03
   33 H33         8.271349E-05  -3.211044E-03   2.741100E-03
   34 H34         1.080879E-03   2.747029E-03  -2.486401E-04
   35 H35         1.581959E-03   2.478806E-03  -2.858333E-03
   36 H36         2.878218E-04   2.955489E-03  -4.101860E-03
   37 H37         1.310928E-03   4.845941E-03   3.249588E-05
   38 H38         2.362135E-03   3.279977E-03  -1.322203E-03
   39 H39         1.018767E-02  -1.813876E-02  -1.628914E-02
   40 H40         9.626731E-03  -2.284088E-02   2.104333E-02
   41 H41        -3.025788E-03  -5.432402E-03   4.655285E-04
   42 H42         1.774922E-02   8.012810E-03   5.612265E-03
   43 H43        -6.590416E-03  -1.529013E-02  -1.113901E-02
   44 H44        -3.256872E-03  -5.464200E-03   6.837605E-03
 -------------   -------------  -------------  -------------
     total        1.645143E-06  -5.329485E-05  -8.688923E-04
   
  Peak memory usage:   6742 Mb
  
  end of program der1b
   
 Time(der1b)  user:       65.9  user+sys:       65.9  wallclock:        4.5
  
  start of program geopt
  
 ----------------------------------------------------------------------------
  Geometry optimization step  2
  Total energy:      -849.93424381058 hartrees
 ----------------------------------------------------------------------------
  
  
  Level shifts adjusted to satisfy step-size constraints
   Step size:    0.3002301
   Cos(theta):   0.9590994
   Final level shift:  -7.3422939E-01
  
  energy change:          -9.7250E-02 .  (  5.0000E-05 )
  gradient maximum:        1.2145E-01 .  (  4.5000E-04 )
  gradient rms:            2.3613E-02 .  (  3.0000E-04 )
  displacement maximum:    1.1689E-01 .  (  1.8000E-03 )
  displacement rms:        2.4931E-02 .  (  1.2000E-03 )
  
  predicted energy change:  -7.4022E-02
  step size:     0.30021
  trust radius:  0.30000
  
  molecular structure not yet converged...
  
  center of mass moved by:
     x:    -5.0689E-03     y:     4.7713E-03     z:    -7.7634E-03
  
  new geometry: 
                                   angstroms
  atom               x                 y                 z
  C1            0.4341452368      0.1123001018     -0.0361989614 
  C2            1.9297930632      0.2591033667     -0.0717874568 
  C3            2.3133398628      0.9292276467      1.5337810959 
  C4            2.0241263551      0.0533705821      2.7388528651 
  C5            2.8449583923     -1.2463379215      2.6483876476 
  H6            3.9108779340     -1.0627515479      2.8522188888 
  C7            2.4296769153     -2.2608903178      3.7012126496 
  C8            2.0940962258     -1.8247938664      5.0070907576 
  C9            1.6655617717     -2.7071954538      5.9828388419 
  C10           1.6254321707     -4.0765601636      5.6779506539 
  C11           1.9923572807     -4.5396241527      4.4075628385 
  C12           2.3975007864     -3.6421612887      3.4094925229 
  C13           2.7795321891     -4.1647913458      2.0411523309 
  C14           3.4326046788     -3.1142467247      1.0556764804 
  C15           2.7577212951     -1.6990122290      1.2014948082 
  H16           1.7101618131     -1.8522671145      0.9140207424 
  C17           3.2807165565     -0.4604847062      0.0596865656 
  H18           3.6024026975     -1.0895333841     -0.7649262184 
  C19           4.1551701719      1.1521235406     -0.4149121157 
  C20           3.1277755242      1.8518474721     -1.4663419802 
  C21           2.5037290910      0.5260730951     -1.6837295375 
  H22           3.4794840592      0.0588236366     -1.9422219317 
  O23           1.5900071062      0.1360280695     -2.7034633286 
  O24           1.2336263071     -5.0117797333      6.6014281106 
  H25           0.0466774971     -0.3545148549      0.8715549301 
  H26           0.0102377981     -0.4171605847     -0.8910198896 
  H27           0.0095344159      1.1270534578     -0.0610503754 
  H28           1.8314469513      1.9002807670      1.6896602099 
  H29           3.4067654075      1.0835368172      1.6324217253 
  H30           0.9492645217     -0.1063019701      2.8594295028 
  H31           2.3665192483      0.6343099580      3.6022763886 
  H32           2.1507640744     -0.7728045020      5.2659072282 
  H33           1.3793443573     -2.3249914215      6.9564768699 
  H34           1.9503416847     -5.6105104630      4.2254398397 
  H35           1.8859473700     -4.6107740528      1.5789701661 
  H36           3.4853480991     -4.9983871886      2.1687575029 
  H37           3.3473003727     -3.5321800029      0.0449897883 
  H38           4.5004622968     -3.0624965314      1.2936885497 
  H39           5.2149121859      1.2269150751     -0.6399516205 
  H40           4.0787982381      1.8963537595      0.3915933558 
  H41           3.7184069944      2.2345485454     -2.3088743321 
  H42           2.3968611389      2.5807442121     -1.0814505074 
  H43           1.1354037170     -0.6746724081     -2.4144294182 
  H44           1.0121701173     -4.5754620620      7.4480062458 
   
  nuclear repulsion energy.......    1590.181272219 hartrees
  -------------------------------------------------
 /  end of geometry optimization iteration   2   /
 -------------------------------------------------
   
  Peak memory usage:   4727 Mb
  
  end of program geopt
   
 Time(geopt)  user:        4.6  user+sys:        4.6  wallclock:        0.4
  
  start of program onee
  
  smallest eigenvalue of S:    5.251E-04
  number of canonical orbitals.....          228
  Peak memory usage:   4838 Mb
  
  end of program onee
   
 Time(onee)  user:        2.6  user+sys:        2.6  wallclock:        0.4
  
  start of program probe
  
  Peak memory usage:   4756 Mb
  
  end of program probe
   
 Time(probe)  user:        2.2  user+sys:        2.2  wallclock:        0.4
  
  start of program grid
  
   grid     grid set  grid #  grid sym
  ------    --------  ------  --------
  coarse        0        0        1
  medium        2        1        1
  fine          0        0        1
  ultrafine     4        2        1
  charge       -1        3        1
  gradient      4        2        1
  density       0        0        1
  DFT-fine    -11        4        1
  DFT-med.    -10        5        1
  DFT-grad    -12        6        1
  DFT-der2      0        0        1
  DFT-cphf      0        0        1
  LMP2-enrg     4        2        1
  LMP2-grad     2        1        1
  DFT-cphf2     0        0        1
  PBF-dens      0        0        1
  plotting      0        0        1
  Rel-grad    -17        0        1
  
  number of gridpoints: 
     atom        C1       C2       C3       C4       C5       H6       C7
  grid # 1       77      100       86       86       91      108      100
  grid # 2      263      360      301      285      316      425      365
  grid # 3        6        6        6        6        6      674      102
  grid # 4     4304     4304     4304     4304     4304     4304     4304
  grid # 5     1192     1192     1192     1192     1192     1192     1192
  grid # 6     5226     5226     5226     5226     5226     5226     5226
   
  number of gridpoints: 
     atom        C8       C9      C10      C11      C12      C13      C14
  grid # 1       96       97       97       97      101       86       86
  grid # 2      339      334      362      336      366      290      294
  grid # 3      173      229      244      212      144        6        6
  grid # 4     4304     4304     4304     4304     4304     4304     4304
  grid # 5     1192     1192     1192     1192     1192     1192     1192
  grid # 6     5226     5226     5226     5226     5226     5226     5226
   
  number of gridpoints: 
     atom       C15      H16      C17      H18      C19      C20      C21
  grid # 1       91      105       93      103       89       82       91
  grid # 2      325      412      337      405      307      294      316
  grid # 3        6      293       36      428        7        7        7
  grid # 4     4304     4304     4304     4304     4304     4304     4304
  grid # 5     1192     1192     1192     1192     1192     1192     1192
  grid # 6     5226     5226     5226     5226     5226     5226     5226
   
  number of gridpoints: 
     atom       H22      O23      O24      H25      H26      H27      H28
  grid # 1       98      112      114      103      104      106      109
  grid # 2      402      435      427      414      417      434      430
  grid # 3      448      776      816      558      675      869      733
  grid # 4     4304     4304     4304     4304     4304     4304     4304
  grid # 5     1192     1192     1192     1192     1192     1192     1192
  grid # 6     5226     5226     5226     5226     5226     5226     5226
   
  number of gridpoints: 
     atom       H29      H30      H31      H32      H33      H34      H35
  grid # 1      101      107      105      111      117      115      110
  grid # 2      393      421      418      431      442      443      434
  grid # 3      286      577      616      787     1144     1063      886
  grid # 4     4304     4304     4304     4304     4304     4304     4304
  grid # 5     1192     1192     1192     1192     1192     1192     1192
  grid # 6     5226     5226     5226     5226     5226     5226     5226
   
  number of gridpoints: 
     atom       H36      H37      H38      H39      H40      H41      H42
  grid # 1      109      111      110      113      102      113      111
  grid # 2      434      433      436      443      406      443      434
  grid # 3      888      815      824     1100      546     1089      819
  grid # 4     4304     4304     4304     4304     4304     4304     4304
  grid # 5     1192     1192     1192     1192     1192     1192     1192
  grid # 6     5226     5226     5226     5226     5226     5226     5226
   
  number of gridpoints: 
     atom       H43      H44    total
  grid # 1      109      113     4465
  grid # 2      426      450    16878
  grid # 3      846     1280    21045
  grid # 4     4304     4304   189376
  grid # 5     1192     1192    52448
  grid # 6     5226     5226   229944
   
  Peak memory usage:   4789 Mb
  
  end of program grid
   
 Time(grid)  user:       30.6  user+sys:       30.6  wallclock:        2.3
  
  start of program rwr
  
  Peak memory usage:   4745 Mb
  
  end of program rwr
   
 Time(rwr)  user:       50.9  user+sys:       50.9  wallclock:        4.7
  
  start of program scf
  
 Energy computed with NOPS off.
  
       i  u  d  i  g                   
       t  p  i  c  r                                 RMS    maximum
       e  d  i  u  i                       energy  density   DIIS  
       r  t  s  t  d       total energy    change  change    error 
  
etot    1  N  N  2  U    -849.95457121289           1.3E-03  1.1E-02
etot    2  Y  Y  6  M    -849.99944061354  4.5E-02  4.4E-04  2.4E-03
etot    3  N  Y  2  U    -849.99949002167  4.9E-05  4.2E-04  4.4E-03
etot    4  Y  Y  6  M    -850.00047806973  9.9E-04  2.8E-04  7.2E-03
etot    5  Y  Y  6  M    -850.00118786926  7.1E-04  7.6E-05  2.2E-03
etot    6  Y  Y  6  M    -850.00123076782  4.3E-05  1.9E-05  3.8E-04
etot    7  N  Y  2  U    -850.00121734430 -1.3E-05  1.5E-05  1.7E-04
etot    8  N  Y  2  U    -850.00121954974  2.2E-06  9.8E-06  1.5E-04
etot    9  N  Y  2  U    -850.00122084561  1.3E-06  7.2E-06  5.0E-05
etot   10  N  Y  2  U    -850.00122124596  4.0E-07  2.2E-06  1.7E-05
etot   11  N  N  2  U    -850.00122130701  6.1E-08  0.0E+00  0.0E+00
  
  
 Energy components, in hartrees:
   (A)  Nuclear repulsion............    1590.18127221881
   (E)  Total one-electron terms.....   -4290.77695139307
   (I)  Total two-electron terms.....    1850.59445786725
   (L)  Electronic energy............   -2440.18249352581  (E+I)
   (N)  Total energy.................    -850.00122130701  (A+L)
   (O)  Gas phase energy.............    -850.00122130701
  
                                 Total             Coulomb       Exchange+Corr.
 Total two-electron terms    1850.59445786725    1974.05152743685    -123.45706956960
   Hamiltonian  1........     949.61924487147     993.60542313706     -43.98617826559
   Hamiltonian  2........     936.88193384160     980.44610429979     -43.56417045819
  
 SCFE: SCF energy: UDFT(b3lyp)      -850.00122130701 hartrees   iterations:  11
  
 
 Alpha HOMO energy:    -0.34907
 Alpha LUMO energy:    -0.14476
 
  Alpha Orbital energies (hartrees): 
   -19.30521   -19.28707   -10.40211   -10.39048   -10.38535   -10.38334
   -10.35091   -10.34303   -10.33182   -10.33096   -10.32972   -10.32703
   -10.32642   -10.32550   -10.31874   -10.31774   -10.31633   -10.31331
   -10.31029   -10.30968    -1.19787    -1.17328    -1.01618    -0.99867
    -0.95957    -0.92369    -0.90960    -0.88329    -0.87563    -0.84926
    -0.84074    -0.80157    -0.76631    -0.75820    -0.74749    -0.72814
    -0.70948    -0.70282    -0.68300    -0.65989    -0.64949    -0.62933
    -0.62420    -0.60976    -0.60565    -0.59363    -0.57860    -0.57271
    -0.55977    -0.55609    -0.54952    -0.54476    -0.53874    -0.53507
    -0.53452    -0.52397    -0.51226    -0.50939    -0.50099    -0.49560
    -0.49354    -0.48326    -0.47322    -0.46927    -0.46255    -0.45515
    -0.44534    -0.44322    -0.43611    -0.40959    -0.39283    -0.37299
    -0.36791    -0.34907    -0.14476    -0.12954    -0.12706    -0.11888
    -0.07355    -0.04596    -0.04271    -0.03766    -0.02696    -0.02268
 
 
 Beta HOMO energy:    -0.33127
 Beta LUMO energy:    -0.30746
 
  Beta Orbital energies (hartrees): 
   -19.30307   -19.28598   -10.40016   -10.38597   -10.38426   -10.38117
   -10.34986   -10.34302   -10.33171   -10.32899   -10.32898   -10.32717
   -10.32624   -10.32546   -10.31870   -10.31743   -10.31588   -10.31301
   -10.31011   -10.30913    -1.19335    -1.17040    -1.01064    -0.99456
    -0.95702    -0.92206    -0.90564    -0.88153    -0.87153    -0.84614
    -0.83789    -0.79931    -0.76440    -0.75630    -0.74440    -0.72602
    -0.70715    -0.69932    -0.67950    -0.65714    -0.64712    -0.62578
    -0.62238    -0.60716    -0.60371    -0.59021    -0.57628    -0.57104
    -0.55705    -0.55328    -0.54726    -0.54308    -0.53565    -0.53222
    -0.52863    -0.52046    -0.50867    -0.50644    -0.49882    -0.49332
    -0.49140    -0.48059    -0.47103    -0.46580    -0.45744    -0.45228
    -0.44206    -0.43686    -0.43377    -0.40734    -0.38710    -0.37072
    -0.33127    -0.30746    -0.13998    -0.12523    -0.11272    -0.10934
    -0.07206    -0.04517    -0.04118    -0.03647    -0.02560
 
  
  
    Unrestricted Spin Properties ...
    Sz*(Sz+1)      0.750
    <S**2> ...     0.754
  
  
  Peak memory usage:   6748 Mb
  
  end of program scf
   
 Time(scf)  user:      248.8  user+sys:      248.8  wallclock:       16.9
  
  start of program der1a
  
  Peak memory usage:   4838 Mb
  
  end of program der1a
   
 Time(der1a)  user:        2.1  user+sys:        2.1  wallclock:        0.5
  
  start of program rwr
  
  Peak memory usage:   4745 Mb
  
  end of program rwr
   
 Time(rwr)  user:       39.0  user+sys:       39.0  wallclock:        5.2
  
  start of program der1b
  
   
  forces (hartrees/bohr) : total     
   
 atom  label           x              y              z
 ---- --------   -------------  -------------  -------------
    1 C1         -5.998450E-03  -1.097811E-02  -7.766880E-03
    2 C2          2.765941E-02   1.211543E-02   2.799813E-02
    3 C3         -2.800514E-03   3.691131E-02  -6.429009E-03
    4 C4         -5.005449E-03   1.103412E-03   5.461337E-04
    5 C5          2.582535E-03   4.671309E-03   6.905265E-03
    6 H6          5.687365E-05   9.218305E-03  -2.213795E-03
    7 C7         -3.680215E-03   2.100704E-04  -2.382042E-03
    8 C8         -4.960480E-03   4.101424E-03  -2.038532E-03
    9 C9          4.510955E-03   5.772874E-03  -1.373432E-03
   10 C10        -1.081827E-03  -4.417283E-03   2.739577E-04
   11 C11         2.911158E-03  -1.717567E-03  -5.234738E-03
   12 C12        -3.027769E-03  -3.821174E-03   2.895531E-03
   13 C13         2.562953E-04   3.022464E-03  -6.778495E-03
   14 C14        -5.707696E-04   4.068231E-03   4.246202E-03
   15 C15         3.023487E-02  -2.369888E-02  -1.355161E-04
   16 H16         9.727557E-04   4.170132E-03  -2.303378E-04
   17 C17         9.773586E-03  -4.354826E-02  -3.363342E-03
   18 H18         2.219281E-03  -1.112198E-02   6.599262E-03
   19 C19        -7.229465E-03   3.997542E-02   4.139368E-02
   20 C20         7.440744E-03   7.191204E-04   4.895002E-03
   21 C21        -7.857614E-03   8.277166E-03  -4.000634E-02
   22 H22        -2.594994E-02  -2.218396E-02  -2.590376E-03
   23 O23        -7.801530E-03   2.206132E-02   1.287075E-02
   24 O24         1.277726E-04   3.502678E-03  -1.268940E-03
   25 H25         2.330130E-03  -1.053997E-03   1.184411E-03
   26 H26        -1.758536E-03  -1.872690E-03  -7.112707E-04
   27 H27         9.887259E-04  -8.928393E-04  -1.218779E-03
   28 H28        -5.379586E-03   1.311043E-03  -6.537549E-03
   29 H29        -2.019121E-02   8.687186E-04  -6.227183E-03
   30 H30        -6.593809E-04  -7.457313E-03   3.763252E-03
   31 H31        -3.645641E-03   2.571572E-03   1.239572E-03
   32 H32        -8.366781E-04  -3.149489E-04  -2.013872E-03
   33 H33         7.027767E-04  -2.450928E-03   1.912734E-03
   34 H34         7.395425E-04   1.970653E-03  -3.085183E-04
   35 H35         5.638588E-04   2.448785E-03  -2.023199E-03
   36 H36        -3.727544E-04   1.542667E-03  -1.805057E-03
   37 H37        -3.553551E-05   4.793422E-03  -5.956920E-04
   38 H38         1.319002E-03   4.205036E-03  -8.793945E-04
   39 H39         3.063688E-03  -2.158751E-02  -1.624763E-02
   40 H40         6.885740E-03  -1.591142E-02   6.108830E-03
   41 H41        -6.553361E-03   3.309775E-04  -1.396789E-03
   42 H42         1.601846E-02   4.343805E-03   2.159437E-03
   43 H43        -3.745977E-03  -6.669539E-03  -8.401094E-03
   44 H44        -1.882013E-03  -5.004632E-03   4.012915E-03
 -------------   -------------  -------------  -------------
     total        3.334748E-04  -4.156751E-04  -1.172738E-03
   
  Peak memory usage:   6742 Mb
  
  end of program der1b
   
 Time(der1b)  user:       62.6  user+sys:       62.6  wallclock:        4.3
  
  start of program geopt
  
 ----------------------------------------------------------------------------
  Geometry optimization step  3
  Total energy:      -850.00122130701 hartrees
 ----------------------------------------------------------------------------
  
  
  Level shifts adjusted to satisfy step-size constraints
   Step size:    0.3004343
   Cos(theta):   0.9036883
   Final level shift:  -5.4723061E-01
  
  energy change:          -6.6977E-02 .  (  5.0000E-05 )
  gradient maximum:        1.1594E-01 .  (  4.5000E-04 )
  gradient rms:            1.7873E-02 .  (  3.0000E-04 )
  displacement maximum:    1.4104E-01 .  (  1.8000E-03 )
  displacement rms:        2.4948E-02 .  (  1.2000E-03 )
  
  predicted energy change:  -5.3910E-02
  step size:     0.30041
  trust radius:  0.30000
  
  molecular structure not yet converged...
  
  center of mass moved by:
     x:    -4.8158E-03     y:     1.4925E-02     z:    -3.9093E-03
  
  new geometry: 
                                   angstroms
  atom               x                 y                 z
  C1            0.3491111571      0.1798728663     -0.0389939370 
  C2            1.8514153930      0.2841456191     -0.0989567152 
  C3            2.2302038339      0.9614727655      1.4990029699 
  C4            1.9247431392      0.0924930974      2.7221799905 
  C5            2.7810433816     -1.1937230124      2.6675091180 
  H6            3.8336331212     -0.9524095014      2.8847479698 
  C7            2.4041616180     -2.2316052996      3.7148580126 
  C8            2.0277869718     -1.8226131278      5.0183622820 
  C9            1.6457102509     -2.7426391692      5.9826563070 
  C10           1.6950714364     -4.1144041604      5.6680672186 
  C11           2.1040887820     -4.5444852058      4.3980900041 
  C12           2.4599758667     -3.6159968892      3.4154686772 
  C13           2.8911285053     -4.1191007209      2.0527441534 
  C14           3.4877883382     -3.0385798714      1.0821080677 
  C15           2.7243202868     -1.6903010483      1.2341461857 
  H16           1.6844798167     -1.8689175762      0.9374595729 
  C17           3.2052493453     -0.5057977088      0.0607901512 
  H18           3.4982809493     -1.2111360121     -0.7131284373 
  C19           4.2032378427      0.8799874895     -0.3961800313 
  C20           3.2820538724      1.7702695500     -1.4189474222 
  C21           2.4585023068      0.5400194702     -1.7011862588 
  H22           3.3589054456     -0.0397968666     -1.9631055341 
  O23           1.5089308306      0.2828977543     -2.7299349311 
  O24           1.3531087483     -5.0920562636      6.5707979477 
  H25          -0.0292200823     -0.2606169312      0.8861229189 
  H26          -0.1057194363     -0.3563969044     -0.8756103500 
  H27          -0.0456405253      1.2051386231     -0.0803085866 
  H28           1.7358005110      1.9328694827      1.6239662796 
  H29           3.3075898864      1.1262767999      1.5850213991 
  H30           0.8522107222     -0.0922197106      2.8420437491 
  H31           2.2300879281      0.6974095678      3.5841855653 
  H32           2.0220442120     -0.7700008936      5.2783817246 
  H33           1.3269425983     -2.3974215827      6.9605728158 
  H34           2.1333384729     -5.6127698027      4.2069561827 
  H35           2.0323281863     -4.6124922382      1.5741780963 
  H36           3.6398776829     -4.9116340839      2.1868530989 
  H37           3.4468257125     -3.4486433984      0.0664916221 
  H38           4.5475790058     -2.9082063870      1.3303047618 
  H39           5.2504871373      0.7533214882     -0.6686705471 
  H40           4.3181574942      1.5815907463      0.4365051632 
  H41           3.9062789661      2.0748849169     -2.2668529237 
  H42           2.7210376547      2.6065950230     -0.9853566222 
  H43           0.9620190181     -0.4900685773     -2.4898912425 
  H44           1.0884809261     -4.7027747054      7.4292384397 
   
  nuclear repulsion energy.......    1589.074287356 hartrees
  -------------------------------------------------
 /  end of geometry optimization iteration   3   /
 -------------------------------------------------
   
  Peak memory usage:   4727 Mb
  
  end of program geopt
   
 Time(geopt)  user:        4.6  user+sys:        4.6  wallclock:        0.4
  
  start of program onee
  
  smallest eigenvalue of S:    5.326E-04
  number of canonical orbitals.....          228
  Peak memory usage:   4838 Mb
  
  end of program onee
   
 Time(onee)  user:        2.8  user+sys:        2.8  wallclock:        0.5
  
  start of program probe
  
  Peak memory usage:   4756 Mb
  
  end of program probe
   
 Time(probe)  user:        2.8  user+sys:        2.8  wallclock:        0.4
  
  start of program grid
  
   grid     grid set  grid #  grid sym
  ------    --------  ------  --------
  coarse        0        0        1
  medium        2        1        1
  fine          0        0        1
  ultrafine     4        2        1
  charge       -1        3        1
  gradient      4        2        1
  density       0        0        1
  DFT-fine    -11        4        1
  DFT-med.    -10        5        1
  DFT-grad    -12        6        1
  DFT-der2      0        0        1
  DFT-cphf      0        0        1
  LMP2-enrg     4        2        1
  LMP2-grad     2        1        1
  DFT-cphf2     0        0        1
  PBF-dens      0        0        1
  plotting      0        0        1
  Rel-grad    -17        0        1
  
  number of gridpoints: 
     atom        C1       C2       C3       C4       C5       H6       C7
  grid # 1       76      100       87       86       92      108      100
  grid # 2      265      363      299      287      318      424      366
  grid # 3        6        7        6        6        6      663      105
  grid # 4     4304     4304     4304     4304     4304     4304     4304
  grid # 5     1192     1192     1192     1192     1192     1192     1192
  grid # 6     5226     5226     5226     5226     5226     5226     5226
   
  number of gridpoints: 
     atom        C8       C9      C10      C11      C12      C13      C14
  grid # 1       96       97       97       97       99       86       86
  grid # 2      336      336      362      336      362      292      292
  grid # 3      177      226      244      212      142        6        6
  grid # 4     4304     4304     4304     4304     4304     4304     4304
  grid # 5     1192     1192     1192     1192     1192     1192     1192
  grid # 6     5226     5226     5226     5226     5226     5226     5226
   
  number of gridpoints: 
     atom       C15      H16      C17      H18      C19      C20      C21
  grid # 1       91      104       93      101       87       81       92
  grid # 2      319      416      336      407      306      294      319
  grid # 3        6      327       25      370        6        7        9
  grid # 4     4304     4304     4304     4304     4304     4304     4304
  grid # 5     1192     1192     1192     1192     1192     1192     1192
  grid # 6     5226     5226     5226     5226     5226     5226     5226
   
  number of gridpoints: 
     atom       H22      O23      O24      H25      H26      H27      H28
  grid # 1       99      112      114      103      105      108      109
  grid # 2      399      434      429      419      420      436      431
  grid # 3      439      782      805      559      698      887      744
  grid # 4     4304     4304     4304     4304     4304     4304     4304
  grid # 5     1192     1192     1192     1192     1192     1192     1192
  grid # 6     5226     5226     5226     5226     5226     5226     5226
   
  number of gridpoints: 
     atom       H29      H30      H31      H32      H33      H34      H35
  grid # 1       99      108      106      111      117      115      109
  grid # 2      390      422      417      432      444      443      434
  grid # 3      250      580      630      801     1152     1051      884
  grid # 4     4304     4304     4304     4304     4304     4304     4304
  grid # 5     1192     1192     1192     1192     1192     1192     1192
  grid # 6     5226     5226     5226     5226     5226     5226     5226
   
  number of gridpoints: 
     atom       H36      H37      H38      H39      H40      H41      H42
  grid # 1      109      109      110      112      102      111      109
  grid # 2      431      430      435      441      405      444      438
  grid # 3      888      801      799     1027      586     1079      848
  grid # 4     4304     4304     4304     4304     4304     4304     4304
  grid # 5     1192     1192     1192     1192     1192     1192     1192
  grid # 6     5226     5226     5226     5226     5226     5226     5226
   
  number of gridpoints: 
     atom       H43      H44    total
  grid # 1      109      114     4456
  grid # 2      428      450    16887
  grid # 3      881     1296    21029
  grid # 4     4304     4304   189376
  grid # 5     1192     1192    52448
  grid # 6     5226     5226   229944
   
  Peak memory usage:   4789 Mb
  
  end of program grid
   
 Time(grid)  user:       30.8  user+sys:       30.8  wallclock:        2.4
  
  start of program rwr
  
  Peak memory usage:   4745 Mb
  
  end of program rwr
   
 Time(rwr)  user:       52.0  user+sys:       52.0  wallclock:        4.9
  
  start of program scf
  
 Energy computed with NOPS off.
  
       i  u  d  i  g                   
       t  p  i  c  r                                 RMS    maximum
       e  d  i  u  i                       energy  density   DIIS  
       r  t  s  t  d       total energy    change  change    error 
  
etot    1  N  N  2  U    -850.01498587515           1.1E-03  1.1E-02
etot    2  Y  Y  6  M    -850.05281526055  3.8E-02  8.1E-04  3.6E-03
etot    3  N  Y  2  U    -850.04737227591 -5.4E-03  1.0E-03  1.9E-02
etot    4  N  Y  2  U    -850.05200314347  4.6E-03  3.9E-04  1.4E-02
etot    5  Y  Y  6  M    -850.05441963527  2.4E-03  5.0E-05  5.8E-04
etot    6  Y  Y  6  M    -850.05442288579  3.3E-06  1.6E-05  6.8E-04
etot    7  N  Y  2  U    -850.05449694480  7.4E-05  9.9E-06  3.2E-04
etot    8  N  Y  2  U    -850.05449840958  1.5E-06  4.0E-06  1.3E-04
etot    9  N  N  2  U    -850.05449869749  2.9E-07  0.0E+00  0.0E+00
  
  
 Energy components, in hartrees:
   (A)  Nuclear repulsion............    1589.07428735570
   (E)  Total one-electron terms.....   -4288.76125807229
   (I)  Total two-electron terms.....    1849.63247201910
   (L)  Electronic energy............   -2439.12878605319  (E+I)
   (N)  Total energy.................    -850.05449869749  (A+L)
   (O)  Gas phase energy.............    -850.05449869749
  
                                 Total             Coulomb       Exchange+Corr.
 Total two-electron terms    1849.63247201910    1973.08774903572    -123.45527701663
   Hamiltonian  1........     949.09901172196     993.08436256971     -43.98535084775
   Hamiltonian  2........     936.43926559767     980.00338646601     -43.56412086834
  
 SCFE: SCF energy: UDFT(b3lyp)      -850.05449869749 hartrees   iterations:   9
  
 
 Alpha HOMO energy:    -0.35165
 Alpha LUMO energy:    -0.13401
 
  Alpha Orbital energies (hartrees): 
   -19.30881   -19.28302   -10.39977   -10.38927   -10.38703   -10.37413
   -10.34591   -10.33709   -10.33418   -10.33030   -10.33012   -10.32909
   -10.32718   -10.32271   -10.32145   -10.32000   -10.31959   -10.31145
   -10.31082   -10.30906    -1.19917    -1.16723    -1.01133    -0.99648
    -0.95703    -0.92389    -0.90561    -0.88334    -0.87609    -0.84671
    -0.83702    -0.79964    -0.76741    -0.75894    -0.74967    -0.72862
    -0.70943    -0.70246    -0.67966    -0.65930    -0.64881    -0.62627
    -0.62267    -0.60763    -0.60610    -0.59195    -0.57843    -0.57172
    -0.55930    -0.55346    -0.55039    -0.54209    -0.53640    -0.53424
    -0.53365    -0.52283    -0.51271    -0.50880    -0.50089    -0.49481
    -0.49047    -0.48346    -0.47520    -0.47061    -0.46241    -0.45581
    -0.44999    -0.44571    -0.43837    -0.40938    -0.39402    -0.37507
    -0.36783    -0.35165    -0.13401    -0.12413    -0.12056    -0.10284
    -0.07094    -0.04871    -0.03965    -0.03644    -0.02237    -0.02102
 
 
 Beta HOMO energy:    -0.33230
 Beta LUMO energy:    -0.30870
 
  Beta Orbital energies (hartrees): 
   -19.30652   -19.28188   -10.39807   -10.38808   -10.38266   -10.37208
   -10.34505   -10.33716   -10.33208   -10.33016   -10.32935   -10.32923
   -10.32703   -10.32269   -10.32144   -10.31948   -10.31927   -10.31092
   -10.31052   -10.30888    -1.19433    -1.16434    -1.00716    -0.99163
    -0.95445    -0.92251    -0.90179    -0.88146    -0.87187    -0.84437
    -0.83344    -0.79719    -0.76542    -0.75711    -0.74663    -0.72668
    -0.70699    -0.69916    -0.67613    -0.65713    -0.64637    -0.62425
    -0.61949    -0.60558    -0.60379    -0.58894    -0.57556    -0.57021
    -0.55694    -0.55068    -0.54764    -0.53984    -0.53239    -0.53155
    -0.52812    -0.51916    -0.50987    -0.50633    -0.49844    -0.49189
    -0.48875    -0.48126    -0.47254    -0.46707    -0.45860    -0.45140
    -0.44848    -0.43761    -0.43640    -0.40646    -0.38869    -0.37268
    -0.33230    -0.30870    -0.12928    -0.11510    -0.10683    -0.09694
    -0.06969    -0.04787    -0.03842    -0.03515    -0.02124
 
  
  
    Unrestricted Spin Properties ...
    Sz*(Sz+1)      0.750
    <S**2> ...     0.754
  
  
  Peak memory usage:   6748 Mb
  
  end of program scf
   
 Time(scf)  user:      192.1  user+sys:      192.1  wallclock:       13.2
  
  start of program der1a
  
  Peak memory usage:   4838 Mb
  
  end of program der1a
   
 Time(der1a)  user:        3.0  user+sys:        3.0  wallclock:        0.5
  
  start of program rwr
  
  Peak memory usage:   4745 Mb
  
  end of program rwr
   
 Time(rwr)  user:       39.0  user+sys:       39.0  wallclock:        5.0
  
  start of program der1b
  
   
  forces (hartrees/bohr) : total     
   
 atom  label           x              y              z
 ---- --------   -------------  -------------  -------------
    1 C1         -3.783749E-03  -1.344001E-02  -1.095462E-02
    2 C2          3.591739E-02   5.945988E-03   2.852306E-02
    3 C3         -1.049211E-02   3.414583E-02  -1.266384E-02
    4 C4         -2.605083E-03   1.244804E-03  -1.047535E-03
    5 C5          2.336010E-03   2.965556E-03   7.090896E-03
    6 H6         -4.051836E-05   6.956686E-03  -3.026998E-03
    7 C7         -3.400554E-03   1.293205E-03  -2.590268E-03
    8 C8         -5.222669E-03  -2.148614E-05  -1.494284E-03
    9 C9          3.686979E-03   3.757722E-03  -4.252518E-04
   10 C10        -1.621340E-03  -3.998317E-03   1.541510E-03
   11 C11         2.226936E-03   1.222197E-04  -2.798766E-03
   12 C12        -1.549669E-03  -2.865465E-03   8.502295E-04
   13 C13         9.041510E-04   1.114574E-03  -6.583694E-03
   14 C14        -1.574632E-03   1.176225E-03   7.921255E-03
   15 C15         3.190828E-02  -5.387092E-03  -8.185649E-03
   16 H16        -2.660840E-04   7.842124E-04   3.460814E-04
   17 C17         9.127660E-03  -4.137271E-02  -3.280169E-03
   18 H18        -5.325981E-03  -6.431573E-03  -1.845744E-03
   19 C19        -2.395173E-03   3.274834E-02   4.593427E-02
   20 C20         9.831465E-03  -1.042570E-02   5.226711E-03
   21 C21        -1.307357E-02   1.041387E-02  -2.194940E-02
   22 H22        -2.469184E-02  -2.227522E-02  -3.391488E-03
   23 O23        -6.009004E-03   2.468929E-02   1.075284E-02
   24 O24         2.614941E-04   6.024860E-03  -1.345508E-03
   25 H25         1.932125E-03  -1.017882E-03   5.792145E-05
   26 H26        -1.431357E-03  -2.069905E-03  -5.283399E-04
   27 H27         7.547003E-04  -5.754433E-04  -9.478307E-04
   28 H28        -4.281844E-03  -5.134128E-04  -4.874462E-03
   29 H29        -1.174887E-02   3.399913E-03  -3.585054E-03
   30 H30         2.354841E-04  -6.226244E-03   7.230381E-04
   31 H31        -1.995496E-03   1.722266E-03   6.725025E-04
   32 H32        -1.245697E-03  -7.050382E-05  -1.258196E-03
   33 H33         9.638377E-04  -1.571068E-03   1.206004E-03
   34 H34         5.176982E-04   1.195637E-03  -3.094830E-04
   35 H35        -2.596131E-04   2.140135E-03  -1.283386E-03
   36 H36        -4.727983E-04   6.377316E-04  -4.817027E-04
   37 H37        -1.096853E-03   4.063537E-03  -8.470574E-04
   38 H38         7.530400E-04   3.589334E-03  -4.799445E-04
   39 H39        -4.288609E-03  -1.895187E-02  -1.623792E-02
   40 H40         3.492260E-03  -9.254392E-03   4.482751E-03
   41 H41        -4.120756E-03   2.594561E-03  -4.787818E-04
   42 H42         9.653331E-03  -3.174354E-04   1.181803E-03
   43 H43        -8.631150E-04  -2.129504E-03  -6.625008E-03
   44 H44        -9.626847E-04  -4.048271E-03   2.138447E-03
 -------------   -------------  -------------  -------------
     total       -3.168262E-04  -2.370190E-04  -8.710593E-04
   
  Peak memory usage:   6742 Mb
  
  end of program der1b
   
 Time(der1b)  user:       64.5  user+sys:       64.5  wallclock:        4.4
  
  start of program geopt
  
 ----------------------------------------------------------------------------
  Geometry optimization step  4
  Total energy:      -850.05449869749 hartrees
 ----------------------------------------------------------------------------
  
  
  Level shifts adjusted to satisfy step-size constraints
   Step size:    0.3003732
   Cos(theta):   0.8621519
   Final level shift:  -4.8792832E-01
  
  energy change:          -5.3277E-02 .  (  5.0000E-05 )
  gradient maximum:        8.7477E-02 .  (  4.5000E-04 )
  gradient rms:            1.6414E-02 .  (  3.0000E-04 )
  displacement maximum:    1.3032E-01 .  (  1.8000E-03 )
  displacement rms:        2.4942E-02 .  (  1.2000E-03 )
  
  predicted energy change:  -4.7598E-02
  step size:     0.30035
  trust radius:  0.30000
  
  molecular structure not yet converged...
  
  center of mass moved by:
     x:     6.6156E-03     y:     2.1483E-02     z:    -4.7408E-03
  
  new geometry: 
                                   angstroms
  atom               x                 y                 z
  C1            0.2645546687      0.2233126096     -0.0589300609 
  C2            1.7719240419      0.3005083185     -0.1257044418 
  C3            2.1449374411      0.9832789829      1.4615357116 
  C4            1.8324105742      0.1156177816      2.6941027137 
  C5            2.7282650902     -1.1524643246      2.6616497857 
  H6            3.7660306991     -0.8547095285      2.8843910548 
  C7            2.3884280320     -2.2055133358      3.7090536492 
  C8            1.9836555178     -1.8145750204      5.0102278529 
  C9            1.6455431450     -2.7550533812      5.9728538587 
  C10           1.7669434742     -4.1257547938      5.6594594084 
  C11           2.2041019130     -4.5346604093      4.3904829908 
  C12           2.5150744835     -3.5904328030      3.4119359603 
  C13           2.9813507977     -4.0819637898      2.0554547056 
  C14           3.5257394436     -2.9814011915      1.0923956512 
  C15           2.6947083804     -1.6892297950      1.2396829785 
  H16           1.6610256111     -1.9009032829      0.9438859095 
  C17           3.1239292591     -0.5570977237      0.0386918462 
  H18           3.3606713923     -1.2912174125     -0.7331405757 
  C19           4.1914037698      0.6003743129     -0.3012945973 
  C20           3.4246847714      1.6474835923     -1.3145924852 
  C21           2.4314377429      0.5480552839     -1.6954671894 
  H22           3.2451625775     -0.1391716100     -1.9499425893 
  O23           1.4787920119      0.4672474122     -2.7493832211 
  O24           1.4717171178     -5.1264961009      6.5536179586 
  H25          -0.1104354483     -0.1987944218      0.8757208123 
  H26          -0.2051832779     -0.3206947805     -0.8850314931 
  H27          -0.1111948597      1.2540966171     -0.1167004181 
  H28           1.6271113445      1.9464634379      1.5614582171 
  H29           3.2065132930      1.1785154881      1.5365388103 
  H30           0.7640642010     -0.0992575665      2.8107023473 
  H31           2.1010202485      0.7399177466      3.5554904350 
  H32           1.9257260026     -0.7630441142      5.2659402888 
  H33           1.3066380135     -2.4346176466      6.9528434112 
  H34           2.2909749240     -5.5985395498      4.1985103050 
  H35           2.1497876383     -4.6122377566      1.5688419559 
  H36           3.7610209949     -4.8412592071      2.1982973119 
  H37           3.5168997838     -3.3840149846      0.0738047975 
  H38           4.5754201051     -2.7842050329      1.3441501925 
  H39           5.1956579878      0.2977955351     -0.6058397779 
  H40           4.4525712748      1.2309246372      0.5504698251 
  H41           4.0899448792      1.8996140719     -2.1467126683 
  H42           3.0050800055      2.5404471233     -0.8461258959 
  H43           0.8264539833     -0.2419917855     -2.5790803055 
  H44           1.1788427121     -4.7721186511      7.4188258008 
   
  nuclear repulsion energy.......    1592.653137346 hartrees
  -------------------------------------------------
 /  end of geometry optimization iteration   4   /
 -------------------------------------------------
   
  Peak memory usage:   4727 Mb
  
  end of program geopt
   
 Time(geopt)  user:        4.6  user+sys:        4.6  wallclock:        0.4
  
  start of program onee
  
  smallest eigenvalue of S:    5.373E-04
  number of canonical orbitals.....          228
  Peak memory usage:   4838 Mb
  
  end of program onee
   
 Time(onee)  user:        2.8  user+sys:        2.8  wallclock:        0.4
  
  start of program probe
  
  Peak memory usage:   4756 Mb
  
  end of program probe
   
 Time(probe)  user:        2.6  user+sys:        2.6  wallclock:        0.4
  
  start of program grid
  
   grid     grid set  grid #  grid sym
  ------    --------  ------  --------
  coarse        0        0        1
  medium        2        1        1
  fine          0        0        1
  ultrafine     4        2        1
  charge       -1        3        1
  gradient      4        2        1
  density       0        0        1
  DFT-fine    -11        4        1
  DFT-med.    -10        5        1
  DFT-grad    -12        6        1
  DFT-der2      0        0        1
  DFT-cphf      0        0        1
  LMP2-enrg     4        2        1
  LMP2-grad     2        1        1
  DFT-cphf2     0        0        1
  PBF-dens      0        0        1
  plotting      0        0        1
  Rel-grad    -17        0        1
  
  number of gridpoints: 
     atom        C1       C2       C3       C4       C5       H6       C7
  grid # 1       78       99       86       86       92      109      100
  grid # 2      265      365      296      290      320      423      366
  grid # 3        6        8        6        6        6      641      108
  grid # 4     4304     4304     4304     4304     4304     4304     4304
  grid # 5     1192     1192     1192     1192     1192     1192     1192
  grid # 6     5226     5226     5226     5226     5226     5226     5226
   
  number of gridpoints: 
     atom        C8       C9      C10      C11      C12      C13      C14
  grid # 1       96       97       97       97       97       86       86
  grid # 2      337      337      362      336      364      291      291
  grid # 3      179      228      246      212      142        6        6
  grid # 4     4304     4304     4304     4304     4304     4304     4304
  grid # 5     1192     1192     1192     1192     1192     1192     1192
[...]
 -------------------------------------------------
   
  Peak memory usage:   4731 Mb
  
  end of program geopt
   
 Time(geopt)  user:        4.9  user+sys:        4.9  wallclock:        0.4
  
  start of program onee
  
  smallest eigenvalue of S:    5.522E-04
  number of canonical orbitals.....          228
  Peak memory usage:   4838 Mb
  
  end of program onee
   
 Time(onee)  user:        2.0  user+sys:        2.0  wallclock:        0.4
  
  start of program probe
  
  Peak memory usage:   4756 Mb
  
  end of program probe
   
 Time(probe)  user:        2.9  user+sys:        2.9  wallclock:        0.4
  
  start of program grid
  
   grid     grid set  grid #  grid sym
  ------    --------  ------  --------
  coarse        0        0        1
  medium        2        1        1
  fine          0        0        1
  ultrafine     4        2        1
  charge       -1        3        1
  gradient      4        2        1
  density       0        0        1
  DFT-fine    -11        4        1
  DFT-med.    -10        5        1
  DFT-grad    -12        6        1
  DFT-der2      0        0        1
  DFT-cphf      0        0        1
  LMP2-enrg     4        2        1
  LMP2-grad     2        1        1
  DFT-cphf2     0        0        1
  PBF-dens      0        0        1
  plotting      0        0        1
  Rel-grad    -17        0        1
  
  number of gridpoints: 
     atom        C1       C2       C3       C4       C5       H6       C7
  grid # 1       79       98       86       86       91      106       99
  grid # 2      268      347      292      291      315      412      363
  grid # 3        6        6        6        6        6      416      105
  grid # 4     4304     4304     4304     4304     4304     4304     4304
  grid # 5     1192     1192     1192     1192     1192     1192     1192
  grid # 6     5226     5226     5226     5226     5226     5226     5226
   
  number of gridpoints: 
     atom        C8       C9      C10      C11      C12      C13      C14
  grid # 1       97       97       99       95       98       86       86
  grid # 2      339      339      358      338      358      292      290
  grid # 3      187      227      250      213      127        6        6
  grid # 4     4304     4304     4304     4304     4304     4304     4304
  grid # 5     1192     1192     1192     1192     1192     1192     1192
  grid # 6     5226     5226     5226     5226     5226     5226     5226
   
  number of gridpoints: 
     atom       C15      H16      C17      H18      C19      C20      C21
  grid # 1       92      106       91      107       86       87       90
  grid # 2      323      414      323      420      292      293      309
  grid # 3        6      354        6      473        6        6        6
  grid # 4     4304     4304     4304     4304     4304     4304     4304
  grid # 5     1192     1192     1192     1192     1192     1192     1192
  grid # 6     5226     5226     5226     5226     5226     5226     5226
   
  number of gridpoints: 
     atom       H22      O23      O24      H25      H26      H27      H28
  grid # 1      109      113      112      107      108      107      107
  grid # 2      426      419      423      422      431      429      428
  grid # 3      621      445      759      638      833      794      686
  grid # 4     4304     4304     4304     4304     4304     4304     4304
  grid # 5     1192     1192     1192     1192     1192     1192     1192
  grid # 6     5226     5226     5226     5226     5226     5226     5226
   
  number of gridpoints: 
     atom       H29      H30      H31      H32      H33      H34      H35
  grid # 1      103      108      104      108      118      116      109
  grid # 2      416      426      421      432      444      441      437
  grid # 3      429      637      577      794     1164     1067      882
  grid # 4     4304     4304     4304     4304     4304     4304     4304
  grid # 5     1192     1192     1192     1192     1192     1192     1192
  grid # 6     5226     5226     5226     5226     5226     5226     5226
   
  number of gridpoints: 
     atom       H36      H37      H38      H39      H40      H41      H42
  grid # 1      110      108      107      110      105      112      108
  grid # 2      437      432      429      433      417      439      426
  grid # 3      866      783      644      813      489     1025      732
  grid # 4     4304     4304     4304     4304     4304     4304     4304
  grid # 5     1192     1192     1192     1192     1192     1192     1192
  grid # 6     5226     5226     5226     5226     5226     5226     5226
   
  number of gridpoints: 
     atom       H43      H44    total
  grid # 1      113      114     4478
  grid # 2      447      450    16881
  grid # 3     1174     1344    20620
  grid # 4     4304     4304   189376
  grid # 5     1192     1192    52448
  grid # 6     5226     5226   229944
   
  Peak memory usage:   4789 Mb
  
  end of program grid
   
 Time(grid)  user:       32.1  user+sys:       32.1  wallclock:        2.4
  
  start of program rwr
  
  Peak memory usage:   4745 Mb
  
  end of program rwr
   
 Time(rwr)  user:       52.1  user+sys:       52.1  wallclock:        5.1
  
  start of program scf
  
 Energy computed with NOPS off.
  
       i  u  d  i  g                   
       t  p  i  c  r                                 RMS    maximum
       e  d  i  u  i                       energy  density   DIIS  
       r  t  s  t  d       total energy    change  change    error 
  
etot    1  N  N  2  U    -850.32744799540           2.4E-05  4.7E-04
etot    2  N  Y  2  U    -850.32746033491  1.2E-05  5.2E-06  5.1E-05
etot    3  N  Y  2  U    -850.32746032058 -1.4E-08  3.1E-06  7.0E-05
etot    4  N  N  2  U    -850.32746051137  1.9E-07  0.0E+00  0.0E+00
  
  
 Energy components, in hartrees:
   (A)  Nuclear repulsion............    1615.92841526641
   (E)  Total one-electron terms.....   -4343.48715378772
   (I)  Total two-electron terms.....    1877.23127800994
   (L)  Electronic energy............   -2466.25587577778  (E+I)
   (N)  Total energy.................    -850.32746051137  (A+L)
   (O)  Gas phase energy.............    -850.32746051137
  
                                 Total             Coulomb       Exchange+Corr.
 Total two-electron terms    1877.23127800994    2000.88597767108    -123.65469966114
   Hamiltonian  1........     962.72448665569    1006.78025242176     -44.05576576607
   Hamiltonian  2........     950.46218124186     994.10572524932     -43.64354400746
  
 SCFE: SCF energy: UDFT(b3lyp)      -850.32746051137 hartrees   iterations:   4
  
 
 Alpha HOMO energy:    -0.35528
 Alpha LUMO energy:    -0.18377
 
  Alpha Orbital energies (hartrees): 
   -19.37608   -19.23853   -10.45602   -10.39236   -10.37393   -10.37376
   -10.36666   -10.35873   -10.33384   -10.32898   -10.32150   -10.31096
   -10.30568   -10.30241   -10.29399   -10.29192   -10.27948   -10.27713
   -10.26609   -10.26608    -1.27018    -1.11573    -1.04452    -0.98296
    -0.95243    -0.94199    -0.90226    -0.89716    -0.86660    -0.83755
    -0.81496    -0.79554    -0.77593    -0.77025    -0.75533    -0.72293
    -0.72104    -0.69307    -0.66291    -0.65408    -0.64742    -0.63399
    -0.61500    -0.61012    -0.60730    -0.59519    -0.58153    -0.57533
    -0.56398    -0.56100    -0.55031    -0.54588    -0.53858    -0.52969
    -0.52092    -0.51241    -0.50607    -0.49748    -0.49017    -0.47809
    -0.47470    -0.47202    -0.46346    -0.45915    -0.44517    -0.43848
    -0.42995    -0.42533    -0.42059    -0.41430    -0.40460    -0.39760
    -0.39543    -0.35528    -0.18377    -0.17269    -0.09548    -0.04758
    -0.04244    -0.03839    -0.02458    -0.01907    -0.01482     0.00218
 
 
 Beta HOMO energy:    -0.34718
 Beta LUMO energy:    -0.32905
 
  Beta Orbital energies (hartrees): 
   -19.37135   -19.23737   -10.45291   -10.38706   -10.37384   -10.37239
   -10.36671   -10.35815   -10.33380   -10.32881   -10.32145   -10.31079
   -10.30517   -10.30234   -10.29374   -10.29184   -10.27942   -10.27709
   -10.26609   -10.26600    -1.26006    -1.11320    -1.03730    -0.97988
    -0.95072    -0.93700    -0.90024    -0.89183    -0.86529    -0.83641
    -0.81261    -0.79220    -0.77417    -0.76756    -0.75447    -0.72143
    -0.71852    -0.69122    -0.66102    -0.65240    -0.64414    -0.63220
    -0.61366    -0.60841    -0.59562    -0.58465    -0.57814    -0.57432
    -0.56119    -0.55827    -0.54831    -0.54227    -0.53282    -0.52624
    -0.51810    -0.51006    -0.50384    -0.49370    -0.48485    -0.47595
    -0.47220    -0.46925    -0.46098    -0.45464    -0.44435    -0.43758
    -0.42768    -0.42455    -0.41567    -0.41161    -0.40362    -0.39590
    -0.34718    -0.32905    -0.16309    -0.15452    -0.09365    -0.04647
    -0.03820    -0.03434    -0.02358    -0.01595    -0.01047
 
  
  
    Unrestricted Spin Properties ...
    Sz*(Sz+1)      0.750
    <S**2> ...     0.757
  
  
  Peak memory usage:   6748 Mb
  
  end of program scf
   
 Time(scf)  user:      129.1  user+sys:      129.1  wallclock:        9.0
  
  start of program der1a
  
  Peak memory usage:   4838 Mb
  
  end of program der1a
   
 Time(der1a)  user:        3.0  user+sys:        3.0  wallclock:        0.5
  
  start of program rwr
  
  Peak memory usage:   4745 Mb
  
  end of program rwr
   
 Time(rwr)  user:       45.2  user+sys:       45.2  wallclock:        5.6
  
  start of program der1b
  
   
  forces (hartrees/bohr) : total     
   
 atom  label           x              y              z
 ---- --------   -------------  -------------  -------------
    1 C1          3.110782E-05   1.186241E-05  -5.992590E-06
    2 C2         -3.370344E-05   2.609201E-05  -1.341908E-05
    3 C3          3.010627E-05   2.903146E-05  -1.588387E-05
    4 C4          1.320557E-05  -2.273481E-05   7.802203E-06
    5 C5          6.232348E-05   8.059966E-05  -2.311465E-05
    6 H6          9.865925E-06  -3.692357E-06  -2.742472E-05
    7 C7          2.911730E-05  -1.849286E-05  -1.471993E-06
    8 C8         -4.443431E-05   6.743895E-06  -5.301493E-06
    9 C9          7.975770E-06   6.848018E-06  -8.646549E-06
   10 C10         1.967012E-05   1.387957E-05  -4.862920E-05
   11 C11        -2.426481E-05  -3.411257E-06  -1.626642E-05
   12 C12         8.499719E-05   1.405885E-05   1.985448E-05
   13 C13        -1.592645E-05  -3.443117E-06  -5.192633E-06
   14 C14         1.380590E-05   2.004142E-05  -7.285378E-06
   15 C15        -8.688410E-06   2.538934E-06  -4.035165E-05
   16 H16         1.622354E-05   1.871825E-05  -2.086917E-05
   17 C17         9.707114E-05  -2.769194E-06   1.582501E-05
   18 H18         2.624181E-05  -1.298898E-06  -1.594282E-05
   19 C19        -1.395281E-05  -4.719142E-06   2.109341E-05
   20 C20         5.609692E-05   2.286154E-05  -1.685952E-05
   21 C21         8.579905E-05   2.120534E-05   6.787945E-06
   22 H22         4.229586E-05   1.888510E-05  -2.370039E-05
   23 O23         1.113079E-06   1.662009E-05  -7.362734E-06
   24 O24        -2.072218E-05  -1.167996E-05   1.361708E-07
   25 H25         2.553559E-05   3.001965E-05  -2.257701E-05
   26 H26         4.189741E-05   2.773604E-05  -1.386798E-05
   27 H27         2.959914E-05   2.394736E-05  -1.916171E-05
   28 H28         2.763875E-05   2.264027E-05  -1.902934E-05
   29 H29         2.007381E-05  -1.625216E-08  -4.255336E-06
   30 H30         1.588743E-05   2.203827E-05  -1.485433E-05
   31 H31         2.091551E-05   1.729937E-05  -1.418427E-05
   32 H32         2.614878E-05   1.451876E-05  -1.095029E-05
   33 H33        -1.112150E-05   6.079711E-06  -2.717312E-05
   34 H34        -1.920774E-05   1.625016E-05  -1.709056E-05
   35 H35         6.751845E-06   1.575633E-05  -1.869623E-05
   36 H36         3.451645E-06   1.408510E-05  -6.197070E-06
   37 H37         2.200756E-05   6.815736E-06  -9.000298E-06
   38 H38         2.468670E-05   3.667811E-06  -4.025272E-06
   39 H39         2.980832E-05  -2.338195E-07  -4.772979E-06
   40 H40         2.935933E-05   3.318709E-06   7.075607E-06
   41 H41         4.874945E-05   6.701110E-06  -3.481552E-06
   42 H42         4.143639E-05   6.785732E-06  -8.314497E-06
   43 H43         6.022467E-05   1.586024E-05  -1.249446E-05
   44 H44        -1.773506E-05   8.230338E-06  -8.428518E-06
 -------------   -------------  -------------  -------------
     total        8.914324E-04   4.992456E-04  -4.636949E-04
   
  Peak memory usage:   6742 Mb
  
  end of program der1b
   
 Time(der1b)  user:       74.9  user+sys:       74.9  wallclock:        5.1
  
  start of program geopt
  
 ----------------------------------------------------------------------------
  Geometry optimization step 24
  Total energy:      -850.32746051137 hartrees
 ----------------------------------------------------------------------------
  
  energy change:          -2.4425E-06 #  (  5.0000E-05 )
  gradient maximum:        1.4485E-04 *  (  4.5000E-04 )
  gradient rms:            2.7790E-05 #  (  3.0000E-04 )
  displacement maximum:    2.7567E-03 .  (  1.8000E-03 )
  displacement rms:        3.0279E-04 *  (  1.2000E-03 )
  
  predicted energy change:  -2.0031E-07
  step size:     0.00365
  trust radius:  0.30000
  
  ********************************************************
  **           Geometry optimization complete           **
  ********************************************************
  
  Checking the geometry optimization convergence pattern ...
  
  best                    worst
  ==0=====1=====2=====3=====4==
          ^                    
  
  Convergence category 1: non-monotonic convergence to an optimal structure.
  Geometry optimization was OK.
  
  Number of imaginary frequencies:   0
  
  center of mass moved by:
     x:     0.0000E+00     y:     0.0000E+00     z:     0.0000E+00
  
  final geometry: 
                                   angstroms
  atom               x                 y                 z
  C1            0.2961604448     -0.2949454838     -0.8468882675 
  C2            1.6623001644      0.1302400539     -0.2791360922 
  C3            1.5035809748      0.7934592005      1.1132454140 
  C4            1.2147274488     -0.2101845763      2.2506081674 
  C5            2.3387374366     -1.2880254183      2.3132232948 
  H6            3.2890746442     -0.7318559873      2.4546964628 
  C7            2.2510007813     -2.2227648955      3.4925480459 
  C8            1.9095281141     -1.7055791813      4.7872219404 
  C9            1.8785360417     -2.5056080002      5.9038271390 
  C10           2.1972351745     -3.8892004864      5.7607923868 
  C11           2.5513454040     -4.4286199507      4.5003211730 
  C12           2.5798353976     -3.6299153357      3.3709425347 
  C13           2.9542164319     -4.2306619241      2.0329841943 
  C14           3.4409195369     -3.1798897549      1.0193805115 
  C15           2.4288621111     -2.0245941365      0.9502716822 
  H16           1.4373539980     -2.4721018486      0.7699492027 
  C17           2.6956715633     -1.0393653869     -0.2128445065 
  H18           2.5952902559     -1.6223290334     -1.1406246981 
  C19           4.0999359888     -0.3558652802     -0.2306530944 
  C20           3.8846439380      1.0501518338     -0.8602923373 
  C21           2.3970905849      1.1095203944     -1.2578266874 
  H22           2.2565791526      0.7315362708     -2.2810019451 
  O23           1.9285576325      2.4759538957     -1.1678048090 
  O24           2.1922005690     -4.7507202386      6.7965379071 
  H25          -0.2360322941     -0.9901771606     -0.1879734212 
  H26           0.4113349531     -0.7857087493     -1.8210120217 
  H27          -0.3509782941      0.5803181144     -0.9822460931 
  H28           0.7017779089      1.5373636830      1.0712071478 
  H29           2.4136884431      1.3508968648      1.3675508017 
  H30           0.2517845908     -0.7153151096      2.1013819000 
  H31           1.1363216317      0.3503627030      3.1885370438 
  H32           1.6822616313     -0.6526462877      4.8888138193 
  H33           1.6282012026     -2.0978232664      6.8778492303 
  H34           2.7994271921     -5.4825826168      4.4523775268 
  H35           2.0653638654     -4.7329185265      1.6192746431 
  H36           3.7032085658     -5.0160288743      2.1851533036 
  H37           3.5511671457     -3.6506988954      0.0362910102 
  H38           4.4321523797     -2.8034075458      1.3050889148 
  H39           4.8161226791     -0.9544278298     -0.8019111585 
  H40           4.5165098352     -0.2587267898      0.7803691251 
  H41           4.5339239403      1.2330895152     -1.7206994668 
  H42           4.0780922199      1.8529767392     -0.1418686252 
  H43           1.2428744749      2.6707842029     -1.8359356552 
  H44           1.9444202574     -4.3708113395      7.6665884866 
   
  principal moments of inertia:
        amu*angstrom^2:      580.19200     2868.53043     3109.33502
                g*cm^2: 9.63431366E-38 4.76330624E-37 5.16317163E-37
   
  rotational constants:
               cm^(-1):      0.02905526      0.00587675      0.00542162
                   GHz:      0.87105476      0.17618046      0.16253604
   
  nuclear repulsion energy.......    1615.928415266 hartrees
  -------------------------------------------------
 /  end of geometry optimization iteration  24   /
 -------------------------------------------------
   
  Peak memory usage:   4822 Mb
  
  end of program geopt
   
 Time(geopt)  user:       10.0  user+sys:       10.0  wallclock:        0.8
  
  start of program ch
  
  Moments from quantum mechanical wavefunction:
  Dipole Moments  (Debye)
     X=    -1.2304     Y=    -4.5094     Z=     7.2779  Tot=     8.6496
  
  gridpoints used for charge fit        19578
    out of a possible maximum of        20620
  
   Electrostatic potential fitting constrained to reproduce
     total charge:                yes
     dipole moment:               yes
     traceless quadrupole moment: no 
     traceless octapole moment:   no 
  
  Atomic charges from electrostatic potential: 
   
 Atom       C1           C2           C3           C4           C5      
 Charge   -0.44062      0.14299     -0.08806     -0.07035     -0.08024
   
 Atom       H6           C7           C8           C9           C10     
 Charge    0.09987      0.13124     -0.13930     -0.31272      0.63860
   
 Atom       C11          C12          C13          C14          C15     
 Charge   -0.36918      0.15231     -0.13097     -0.10738      0.08488
   
 Atom       H16          C17          H18          C19          C20     
 Charge    0.02937     -0.08381      0.05156     -0.12381     -0.17378
   
 Atom       C21          H22          O23          O24          H25     
 Charge    0.36021      0.00804     -0.72799     -0.57833      0.12469
   
 Atom       H26          H27          H28          H29          H30     
 Charge    0.10433      0.11742      0.07382      0.05717      0.05082
   
 Atom       H31          H32          H33          H34          H35     
 Charge    0.03303      0.19696      0.19295      0.21482      0.08626
   
 Atom       H36          H37          H38          H39          H40     
 Charge    0.09826      0.07441      0.04592      0.06420      0.04777
   
 Atom       H41          H42          H43          H44     
 Charge    0.07941      0.09546      0.46859      0.50120
  
  sum of atomic charges:     1.000000
   
 RMS Error   5.60E-04 hartrees
 
  
  Moments from electrostatic potential charges:
  Dipole Moments  (Debye)
     X=    -1.2304     Y=    -4.5094     Z=     7.2779  Tot=     8.6496
  
  Peak memory usage:   4833 Mb
  
  end of program ch
   
 Time(ch)  user:        8.9  user+sys:        8.9  wallclock:        3.3

 Total cpu seconds     user:    9597.939   user+sys:    9597.939
  
 Total elapsed time:    846 seconds

Job estradiol_1 completed on n047 at Sun Jan  8 22:38:35 2017
