Job Estrone_1 started on n048 at Sun Jan  8 22:24:31 2017
jobid: u01-0-5873026c

  +--------------------------------------------------------------------+
  |  Jaguar version 9.3, release  15                                   |
  |                                                                    |
  |  Copyright Schrodinger, Inc.                                       |
  |  All Rights Reserved.                                              |
  |                                                                    |
  |  The following have contributed to Jaguar (listed alphabetically): |
  |  Mike Beachy, Art Bochevarov, Dale Braden, Yixiang Cao,            |
  |  Chris Cortis, Rich Friesner, Bill Goddard, Hod Greeley,           |
  |  Tom Hughes, Leif Jacobson, Jean-Marc Langlois,                    |
  |  Daniel Mainz, Rob Murphy, Dean Philipp,                           |
  |  Tom Pollard, Murco Ringnalda, Mark Watson.                        |
  |                                                                    |
  |  Use of this program should be acknowledged in publications as:    |
  |                                                                    |
  |  Jaguar, version 9.3, Schrodinger, Inc., New York, NY, 2016.       |
  |                                                                    |
  |  A. D. Bochevarov, E. Harder, T. F. Hughes, J. R. Greenwood,       |
  |  D. A. Braden, D. M. Philipp, D. Rinaldo, M. D. Halls,             |
  |  J. Zhang, R. A. Friesner, "Jaguar: A High-Performance Quantum     |
  |  Chemistry Software Program with Strengths in Life and Materials   |
  |  Sciences", Int. J. Quantum Chem., 2013, 113(18), 2110-2142.       |
  +--------------------------------------------------------------------+
  
  start of program pre
  
  Job name: Estrone_1
  Executables used: /home/applications/Schrodinger_Suites_2016-3/jaguar-v9.3/bin/Linux-x86_64
  Temporary files : /scratch/Schrodinger_Suites/pbeni001/Estrone_1#u01-0-5873026c
  Maestro file (input):  Estrone_1.mae
  Maestro file (output): Estrone_1.01.mae
  
  basis set:             6-31g                           
  net molecular charge:    1
  multiplicity:            2
  
  Using up to  16 threads per process
  
  number of basis functions....          224
  
 Input geometry:
                                   angstroms
  atom               x                 y                 z
  C1            0.6813024000      0.2595808000     -0.4733345000 
  C2            2.2964980000      0.3247627000     -0.0468579000 
  C3            2.9917752000      0.7929000000     -1.2843608000 
  C4            2.5516217000      0.0205477000     -2.4819549000 
  C5            2.9052092000     -1.4258782000     -2.2348332000 
  H6            4.0118433000     -1.4630687000     -2.2075326000 
  C7            2.5096372000     -2.2720158000     -3.4649369000 
  C8            2.3309756000     -1.7072510000     -4.7550307000 
  C9            1.8712597000     -2.4520810000     -5.8461643000 
  C10           1.6313969000     -3.8017334000     -5.6775083000 
  C11           1.8694540000     -4.4044483000     -4.4401961000 
  C12           2.3199295000     -3.6514527000     -3.3245963000 
  C13           2.5275858000     -4.3265459000     -1.9815277000 
  C14           3.0881985000     -3.4115266000     -0.8221767000 
  C15           2.2923986000     -2.0256961000     -0.7945619000 
  H16           1.2544311000     -2.3135182000     -0.9644340000 
  C17           2.2272212000     -0.9836184000      0.6744552000 
  H18           2.8825024000     -1.4539485000      1.4190977000 
  C19           1.2727482000      0.1330703000      1.8575215000 
  C20           2.2487796000      1.2258351000      2.3214260000 
  C21           3.1024573000      0.9996520000      1.1358763000 
  O22           4.3025126000      1.0865975000      1.2018147000 
  O23           1.1590918000     -4.5705420000     -6.7024324000 
  H24           0.4562469000     -0.3872219000     -1.3227190000 
  H25           0.2485603000      1.2450339000     -0.5979977000 
  H26           0.0345518000     -0.3322298000      0.2166582000 
  H27           4.0831362000      0.7733034000     -1.2052806000 
  H28           2.7049082000      1.8410877000     -1.4272818000 
  H29           3.0299699000      0.4694005000     -3.3532191000 
  H30           1.4871809000      0.1039440000     -2.7122962000 
  H31           2.5192217000     -0.6548293000     -4.9469060000 
  H32           1.7000187000     -1.9532559000     -6.7962076000 
  H33           1.6785034000     -5.4712989000     -4.3492168000 
  H34           3.1850586000     -5.1946399000     -2.1419111000 
  H35           1.5533068000     -4.7125001000     -1.6637625000 
  H36           4.1632503000     -3.2713741000     -1.0478687000 
  H37           3.0469000000     -3.9605694000      0.1196919000 
  H38           0.6345383000     -0.3045636000      2.6212684000 
  H39           0.5579029000      0.8938097000      1.4422067000 
  H40           2.6750382000      1.0127686000      3.2976175000 
  H41           1.9463560000      2.2878918000      2.2598501000 
  H42           1.0390191000     -4.0138210000     -7.4910134000 
   
  principal moments of inertia:
        amu*angstrom^2:      553.91728     2914.36852     3109.71984
                g*cm^2: 9.19801175E-38 4.83942217E-37 5.16381064E-37
   
  rotational constants:
               cm^(-1):      0.03043348      0.00578432      0.00542095
                   GHz:      0.91237270      0.17340944      0.16251593
   
  Molecular weight:     270.16 amu
   
  Stoichiometry: C18H22O2
  Molecular Point Group: C1      
  Point Group used: C1
  
 
Number of optimization coordinates:   139
Number of independent coordinates:    139
Number of non-redundant coordinates:  120
Number of frozen coordinates:           0
Number of harmonic constraints:         0
 
Number of geometric degrees of freedom:   120
Maximum geometric degrees of freedom:     120
 " " " " " excluding dummy atoms:         120
 
  nuclear repulsion energy.......    1571.527628638 hartrees
 
 Non-default options chosen:
   SCF calculation type: UDFT(b3lyp)                 
   UDFT=Becke_3_Parameter/HF+Slater+Becke88+VWN+LYP (B3LYP)
   Geometry will be optimized in redundant internal coordinates
   Electrostatic potential fit to point charges on atomic centers
   Electrostatic potential fitting constrained to reproduce
     total charge:                yes
     dipole moment:               yes
     traceless quadrupole moment: no 
     traceless octapole moment:   no 
  
 Temporary integer options set:
     73=  2
  
  Peak memory usage:   4803 Mb
  
  end of program pre
   
 Time(pre)  user:        8.3  user+sys:        8.3  wallclock:        1.0
  
  start of program onee
  
  smallest eigenvalue of S:    5.205E-04
  number of canonical orbitals.....          224
  Peak memory usage:   4838 Mb
  
  end of program onee
   
 Time(onee)  user:        3.1  user+sys:        3.1  wallclock:        0.5
  
  start of program hfig
  
  initial wavefunction generated automatically from atomic wavefunctions
  
  -------------------
  Alpha orbital space
  -------------------
 
  Irreducible     Total no   No of occupied orbitals 
  representation  orbitals   Shell_1  Shell_2    ...
  No Symm          224         73
  ------------------------
  Orbital occupation/shell    1.000
 
  ------------------
  Beta orbital space
  ------------------
 
  Irreducible     Total no   No of occupied orbitals 
  representation  orbitals   Shell_1  Shell_2    ...
  No Symm          224         72
  ------------------------
  Orbital occupation/shell    1.000
 
  
  
    Unrestricted Spin Properties ...
    Sz*(Sz+1) ..............     0.750
    <S**2> of initial guess      0.750
  
  
  Peak memory usage:   4756 Mb
  
  end of program hfig
   
 Time(hfig)  user:        3.7  user+sys:        3.7  wallclock:        0.6
  
  start of program probe
  
  Peak memory usage:   4756 Mb
  
  end of program probe
   
 Time(probe)  user:        1.8  user+sys:        1.8  wallclock:        0.5
  
  start of program grid
  
   grid     grid set  grid #  grid sym
  ------    --------  ------  --------
  coarse        0        0        1
  medium        2        1        1
  fine          0        0        1
  ultrafine     4        2        1
  charge       -1        3        1
  gradient      4        2        1
  density       0        0        1
  DFT-fine    -11        4        1
  DFT-med.    -10        5        1
  DFT-grad    -12        6        1
  DFT-der2      0        0        1
  DFT-cphf      0        0        1
  LMP2-enrg     4        2        1
  LMP2-grad     2        1        1
  DFT-cphf2     0        0        1
  PBF-dens      0        0        1
  plotting      0        0        1
  Rel-grad    -17        0        1
  
  number of gridpoints: 
     atom        C1       C2       C3       C4       C5       H6       C7
  grid # 1       78       96       86       86       90      106       98
  grid # 2      273      345      280      283      322      423      360
  grid # 3        6        8        6        6        6      574       98
  grid # 4     4304     4304     4304     4304     4304     4304     4304
  grid # 5     1192     1192     1192     1192     1192     1192     1192
  grid # 6     5226     5226     5226     5226     5226     5226     5226
   
  number of gridpoints: 
     atom        C8       C9      C10      C11      C12      C13      C14
  grid # 1       94       97       98       97       99       85       85
  grid # 2      336      336      353      342      360      291      291
  grid # 3      181      229      234      210      124        6        6
  grid # 4     4304     4304     4304     4304     4304     4304     4304
  grid # 5     1192     1192     1192     1192     1192     1192     1192
  grid # 6     5226     5226     5226     5226     5226     5226     5226
   
  number of gridpoints: 
     atom       C15      H16      C17      H18      C19      C20      C21
  grid # 1       93      105       94      111       84       84       94
  grid # 2      338      416      345      435      303      285      357
  grid # 3        9      430       30      728        6        6       32
  grid # 4     4304     4304     4304     4304     4304     4304     4304
  grid # 5     1192     1192     1192     1192     1192     1192     1192
  grid # 6     5226     5226     5226     5226     5226     5226     5226
   
  number of gridpoints: 
     atom       O22      O23      H24      H25      H26      H27      H28
  grid # 1      122      114      100      107      100      108      109
  grid # 2      496      427      396      432      409      424      430
  grid # 3     1114      829      395      848      562      631      799
  grid # 4     4304     4304     4304     4304     4304     4304     4304
  grid # 5     1192     1192     1192     1192     1192     1192     1192
  grid # 6     5226     5226     5226     5226     5226     5226     5226
   
  number of gridpoints: 
     atom       H29      H30      H31      H32      H33      H34      H35
  grid # 1      107      103      109      116      116      110      108
  grid # 2      414      407      426      440      446      440      434
  grid # 3      595      441      744     1132     1072      932      814
  grid # 4     4304     4304     4304     4304     4304     4304     4304
  grid # 5     1192     1192     1192     1192     1192     1192     1192
  grid # 6     5226     5226     5226     5226     5226     5226     5226
   
  number of gridpoints: 
     atom       H36      H37      H38      H39      H40      H41      H42
  grid # 1      108      112      112       97      112      109      112
  grid # 2      428      436      444      398      444      441      446
  grid # 3      749      903     1086      363     1087     1066     1269
  grid # 4     4304     4304     4304     4304     4304     4304     4304
  grid # 5     1192     1192     1192     1192     1192     1192     1192
  grid # 6     5226     5226     5226     5226     5226     5226     5226
   
  number of gridpoints: 
     atom     total
  grid # 1     4251
  grid # 2    16132
  grid # 3    20366
  grid # 4   180768
  grid # 5    50064
  grid # 6   219492
   
  Peak memory usage:   4788 Mb
  
  end of program grid
   
 Time(grid)  user:       24.6  user+sys:       24.6  wallclock:        2.1
  
  start of program rwr
  
  Peak memory usage:   4745 Mb
  
  end of program rwr
   
 Time(rwr)  user:       53.5  user+sys:       53.5  wallclock:        5.0
  
  start of program scf
  
 number of electrons..........        145
 number of alpha electrons....         73
 number of beta electrons.....         72
 number of alpha orbitals.....        224
 number of beta orbitals......        224
 number of alpha occupied orb..        73
 number of alpha virtual orb...       151
 number of beta occupied orb...        72
 number of beta virtual orb....       152
 SCF type: UDFT=Becke_3_Parameter/HF+Slater+Becke88+VWN+LYP (B3LYP)
 Energy computed with NOPS off.
  
       i  u  d  i  g                   
       t  p  i  c  r                                 RMS    maximum
       e  d  i  u  i                       energy  density   DIIS  
       r  t  s  t  d       total energy    change  change    error 
  
etot    1  N  N  5  M    -846.12882946727           1.5E-02  9.6E-02
etot    2  Y  Y  6  M    -843.49691295467 -2.6E+00  1.4E-02  4.2E-01
etot    3  Y  Y  6  M    -847.51732360660  4.0E+00  7.3E-03  1.2E-01
etot    4  N  Y  2  U    -848.63315579667  1.1E+00  5.5E-03  5.5E-02
etot    5  Y  Y  6  M    -848.55783075794 -7.5E-02  4.3E-03  6.3E-02
etot    6  N  Y  2  U    -848.73698938740  1.8E-01  3.7E-03  3.6E-02
etot    7  Y  Y  6  M    -848.72343329791 -1.4E-02  3.5E-03  2.2E-02
etot    8  N  Y  2  U    -848.76981638967  4.6E-02  3.0E-03  3.0E-02
etot    9  Y  Y  6  M    -848.76527062934 -4.5E-03  1.5E-03  3.6E-02
etot   10  N  Y  2  U    -848.79735936962  3.2E-02  1.2E-04  1.2E-02
etot   11  Y  Y  6  M    -848.79744589646  8.7E-05  7.1E-05  1.1E-02
etot   12  Y  Y  6  M    -848.79726217867 -1.8E-04  3.9E-05  1.3E-02
etot   13  N  Y  2  U    -848.79751067693  2.5E-04  4.0E-05  1.1E-02
etot   14  N  Y  2  U    -848.79731098268 -2.0E-04  1.4E-05  1.2E-02
etot   15  N  Y  2  U    -848.79739655671  8.6E-05  3.3E-05  1.2E-02
etot   16  N  Y  2  U    -848.79760620420  2.1E-04  6.5E-05  1.1E-02
etot   17  Y  Y  6  M    -848.79781496299  2.1E-04  3.4E-04  9.7E-03
etot   18  Y  Y  6  M    -848.79473193728 -3.1E-03  3.1E-04  1.4E-02
etot   19  N  Y  2  U    -848.79781197913  3.1E-03  2.1E-03  9.9E-03
etot   20  Y  Y  6  M    -848.74686481275 -5.1E-02  1.8E-03  4.0E-02
etot   21  N  Y  2  U    -848.79864310935  5.2E-02  1.5E-04  2.2E-03
etot   22  Y  Y  6  M    -848.79864982186  6.7E-06  5.8E-05  3.1E-03
etot   23  Y  Y  6  M    -848.79872540069  7.6E-05  7.5E-06  7.4E-04
etot   24  N  Y  2  U    -848.79873160759  6.2E-06  6.4E-06  5.5E-04
etot   25  N  Y  2  U    -848.79873352278  1.9E-06  3.3E-06  3.0E-04
etot   26  N  N  2  U    -848.79873409659  5.7E-07  0.0E+00  0.0E+00
  
  
 Energy components, in hartrees:
   (A)  Nuclear repulsion............    1571.52762863776
   (E)  Total one-electron terms.....   -4251.87871605607
   (I)  Total two-electron terms.....    1831.55235332172
   (L)  Electronic energy............   -2420.32636273435  (E+I)
   (N)  Total energy.................    -848.79873409659  (A+L)
   (O)  Gas phase energy.............    -848.79873409659
  
                                 Total             Coulomb       Exchange+Corr.
 Total two-electron terms    1831.55235332172    1954.29007684150    -122.73772351978
   Hamiltonian  1........     939.74344220200     983.49295888704     -43.74951668504
   Hamiltonian  2........     927.50707190356     970.79711795446     -43.29004605090
  
 SCFE: SCF energy: UDFT(b3lyp)      -848.79873409659 hartrees   iterations:  26
  
 
 Alpha HOMO energy:    -0.37305
 Alpha LUMO energy:    -0.17369
 
  Alpha Orbital energies (hartrees): 
   -19.33321   -19.31210   -10.43024   -10.40737   -10.37646   -10.36696
   -10.36262   -10.35392   -10.34374   -10.34222   -10.33800   -10.33556
   -10.33116   -10.32930   -10.32579   -10.31720   -10.31633   -10.30337
   -10.29964   -10.29514    -1.23640    -1.22850    -1.02076    -1.01124
    -0.96077    -0.93447    -0.91127    -0.88851    -0.87560    -0.85181
    -0.82513    -0.78559    -0.77414    -0.76761    -0.75874    -0.72812
    -0.72183    -0.68463    -0.67292    -0.65742    -0.63494    -0.62354
    -0.61846    -0.61029    -0.60219    -0.59708    -0.59171    -0.57544
    -0.56736    -0.56541    -0.55622    -0.55102    -0.53964    -0.53506
    -0.52946    -0.52396    -0.51556    -0.51137    -0.49970    -0.49091
    -0.48482    -0.48425    -0.47575    -0.46393    -0.46368    -0.45550
    -0.44042    -0.42893    -0.42261    -0.38708    -0.38098    -0.37526
    -0.37305    -0.17369    -0.15002    -0.14196    -0.13589    -0.06294
    -0.05570    -0.04258    -0.03351    -0.02579    -0.01932
 
 
 Beta HOMO energy:    -0.34333
 Beta LUMO energy:    -0.32684
 
  Beta Orbital energies (hartrees): 
   -19.32986   -19.30612   -10.43041   -10.40585   -10.37539   -10.36537
   -10.36183   -10.35101   -10.34410   -10.34225   -10.33806   -10.33482
   -10.33017   -10.32943   -10.32453   -10.31713   -10.31630   -10.30347
   -10.29956   -10.29503    -1.22582    -1.22149    -1.01705    -1.00734
    -0.95823    -0.93301    -0.90753    -0.88670    -0.87130    -0.84990
    -0.82395    -0.78363    -0.77170    -0.76525    -0.75634    -0.72478
    -0.72058    -0.68140    -0.67120    -0.65451    -0.63280    -0.62179
    -0.61592    -0.60419    -0.59831    -0.59442    -0.58935    -0.57311
    -0.56511    -0.55790    -0.55388    -0.54554    -0.53606    -0.53302
    -0.52703    -0.52053    -0.51265    -0.50463    -0.49770    -0.48799
    -0.48337    -0.47957    -0.47334    -0.46188    -0.46070    -0.44698
    -0.43237    -0.42312    -0.41999    -0.38345    -0.37383    -0.34333
    -0.32684    -0.17002    -0.14358    -0.13757    -0.12320    -0.06175
    -0.05209    -0.04171    -0.03200    -0.02476
 
  
  
    Unrestricted Spin Properties ...
    Sz*(Sz+1)      0.750
    <S**2> ...     0.756
  
  
  Peak memory usage:   6748 Mb
  
  end of program scf
   
 Time(scf)  user:      412.6  user+sys:      412.6  wallclock:       28.6
  
  start of program der1a
  
  Peak memory usage:   4838 Mb
  
  end of program der1a
   
 Time(der1a)  user:        2.7  user+sys:        2.7  wallclock:        0.5
  
  start of program rwr
  
  Peak memory usage:   4745 Mb
  
  end of program rwr
   
 Time(rwr)  user:       40.0  user+sys:       40.0  wallclock:        5.3
  
  start of program der1b
  
   
  forces (hartrees/bohr) : total     
   
 atom  label           x              y              z
 ---- --------   -------------  -------------  -------------
    1 C1         -2.175937E-02  -2.113627E-03  -4.058236E-03
    2 C2         -7.231882E-03   2.370657E-02  -2.992135E-02
    3 C3          7.319022E-03   5.732509E-03  -1.322525E-02
    4 C4         -4.383285E-04   6.544251E-03  -1.949213E-02
    5 C5         -1.207448E-02   7.426233E-03  -4.544323E-03
    6 H6         -3.511270E-03  -4.760265E-03   1.083775E-02
    7 C7          1.825156E-03   5.842529E-03   9.435929E-03
    8 C8         -6.016301E-03   7.158911E-03  -1.467002E-02
    9 C9          1.126006E-02   3.387868E-02   1.104466E-02
   10 C10        -4.106099E-03  -1.650347E-02  -8.240674E-04
   11 C11         5.446288E-03  -6.164320E-03   2.608585E-02
   12 C12        -6.446516E-03  -2.325705E-02  -1.248402E-02
   13 C13        -5.496892E-03   4.893776E-03   6.608298E-03
   14 C14         3.372951E-03   2.720064E-03   2.530739E-03
   15 C15         3.545118E-03  -3.111750E-02  -1.304324E-02
   16 H16        -4.473784E-03   5.278425E-03  -1.847193E-03
   17 C17         8.864278E-03  -1.837082E-02   2.630681E-03
   18 H18         1.496079E-02   1.006448E-02  -1.057729E-02
   19 C19        -6.610157E-02   1.154083E-02   5.265072E-02
   20 C20         2.454656E-03  -2.912465E-02   1.233287E-02
   21 C21        -1.087711E-02   2.221731E-02   8.835107E-03
   22 O22         4.106077E-02   4.149842E-03  -2.036201E-02
   23 O23         2.611170E-03  -4.761014E-04   8.391552E-03
   24 H24         1.670433E-02   1.541063E-02  -1.561700E-02
   25 H25        -3.022674E-03   6.315103E-03  -6.232932E-03
   26 H26         1.315118E-02   1.807351E-02  -3.836803E-03
   27 H27         2.138193E-03  -4.762909E-04   2.673213E-03
   28 H28         2.345252E-03   3.779829E-03   3.383347E-03
   29 H29         8.825152E-03  -6.297411E-03  -3.972791E-03
   30 H30         2.596307E-03   4.338777E-03   1.881355E-03
   31 H31        -5.024601E-04  -2.636770E-03   4.314999E-03
   32 H32         1.123093E-03  -1.127901E-03   1.774663E-04
   33 H33         7.795071E-04   1.995779E-03   7.528046E-04
   34 H34        -3.484288E-04   1.935537E-03   6.338970E-03
   35 H35        -1.443159E-03  -4.874099E-03   1.680188E-03
   36 H36        -6.785855E-03   6.240603E-03   7.252978E-03
   37 H37        -4.053882E-03  -1.645782E-03   1.894934E-03
   38 H38         1.171892E-02  -1.675216E-02   9.507036E-03
   39 H39         5.057269E-03  -3.614091E-02  -7.731645E-03
   40 H40         1.420418E-02   5.305236E-03  -1.325943E-03
   41 H41        -1.306657E-02  -9.593522E-03   4.118475E-03
   42 H42        -3.480631E-03  -2.752022E-03  -1.102217E-02
 -------------   -------------  -------------  -------------
     total        1.263938E-04   3.647525E-04   5.715121E-04
   
  Peak memory usage:   6742 Mb
  
  end of program der1b
   
 Time(der1b)  user:       52.8  user+sys:       52.8  wallclock:        3.8
  
  start of program geopt
  
 ----------------------------------------------------------------------------
  Geometry optimization step  1
  Total energy:      -848.79873409659 hartrees
 ----------------------------------------------------------------------------
  
  
  Level shifts adjusted to satisfy step-size constraints
   Step size:    0.3000788
   Cos(theta):   0.9610272
   Final level shift:  -9.8313481E-01
  
  gradient maximum:        2.6708E-01 .  (  4.5000E-04 )
  gradient rms:            3.9039E-02 .  (  3.0000E-04 )
  displacement maximum:    1.7393E-01 .  (  1.8000E-03 )
  displacement rms:        2.5452E-02 .  (  1.2000E-03 )
  
  predicted energy change:  -1.1063E-01
  step size:     0.30007
  trust radius:  0.30000
  
  molecular structure not yet converged...
  
  center of mass moved by:
     x:    -9.5873E-03     y:     3.7774E-03     z:    -3.2179E-03
  
  new geometry: 
                                   angstroms
  atom               x                 y                 z
  C1            0.7049957593      0.4672684963     -0.6065972933 
  C2            2.3022124910      0.4152403927     -0.1246515147 
  C3            3.0240659478      0.8864251482     -1.3558557157 
  C4            2.5732609771      0.1119065113     -2.5642759483 
  C5            2.8680095165     -1.3578650694     -2.2844047699 
  H6            3.9688197302     -1.4434949308     -2.2145195069 
  C7            2.4869385047     -2.2503650881     -3.4819503426 
  C8            2.3323586483     -1.7339101936     -4.7958637038 
  C9            1.8981140591     -2.5265288286     -5.8573512384 
  C10           1.6615024070     -3.8809640017     -5.6327807118 
  C11           1.8794862021     -4.4358768244     -4.3662339183 
  C12           2.3017466302     -3.6349505128     -3.2857547556 
  C13           2.4788543453     -4.2674906126     -1.9161154665 
  C14           3.0181933474     -3.3185962249     -0.7847911998 
  C15           2.2348841553     -1.9404644583     -0.8518681898 
  H16           1.1869940240     -2.1909672457     -1.0279551261 
  C17           2.2132823949     -0.8969920138      0.5932200895 
  H18           2.8874282171     -1.3575933301      1.3257652560 
  C19           1.3788845131     -0.2045878885      2.0406187265 
  C20           2.2486796282      1.0363733955      2.3899681482 
  C21           3.0595972061      1.0351951914      1.1221473999 
  O22           4.2728993153      1.0781621318      1.2082889877 
  O23           1.2135287901     -4.7102759767     -6.6229309749 
  H24           0.4963734002     -0.1329426251     -1.4933391839 
  H25           0.3352981029      1.4836096112     -0.7109815732 
  H26           0.0108330506     -0.0982965430      0.0454206600 
  H27           4.1133460585      0.8071014318     -1.2725898363 
  H28           2.7929492040      1.9531380097     -1.4670823566 
  H29           3.0810628202      0.5317900688     -3.4355457299 
  H30           1.5178956389      0.2387772570     -2.8110063684 
  H31           2.5291148995     -0.6906094160     -5.0188276080 
  H32           1.7431678812     -2.0726768138     -6.8320407349 
  H33           1.6929996848     -5.4985649681     -4.2355918514 
  H34           3.1474602347     -5.1340316741     -2.0224118731 
  H35           1.5015883392     -4.6590359099     -1.6097299268 
  H36           4.0972472085     -3.1837862962     -0.9778003294 
  H37           2.9441186179     -3.8321208612      0.1761206892 
  H38           0.9197065787     -0.7263643854      2.8800976964 
  H39           0.5019873309      0.3889982649      1.6967169295 
  H40           2.8005449863      0.7917933586      3.2947170238 
  H41           1.7675023954      2.0290925955      2.4203078112 
  H42           1.0976451214     -4.2089153587     -7.4516598349 
   
  nuclear repulsion energy.......    1567.217908130 hartrees
  -------------------------------------------------
 /  end of geometry optimization iteration   1   /
 -------------------------------------------------
   
  Peak memory usage:   4726 Mb
  
  end of program geopt
   
 Time(geopt)  user:        6.7  user+sys:        6.7  wallclock:        0.6
  
  start of program onee
  
  smallest eigenvalue of S:    5.325E-04
  number of canonical orbitals.....          224
  Peak memory usage:   4838 Mb
  
  end of program onee
   
 Time(onee)  user:        1.9  user+sys:        1.9  wallclock:        0.4
  
  start of program probe
  
  Peak memory usage:   4756 Mb
  
  end of program probe
   
 Time(probe)  user:        1.8  user+sys:        1.8  wallclock:        0.4
  
  start of program grid
  
   grid     grid set  grid #  grid sym
  ------    --------  ------  --------
  coarse        0        0        1
  medium        2        1        1
  fine          0        0        1
  ultrafine     4        2        1
  charge       -1        3        1
  gradient      4        2        1
  density       0        0        1
  DFT-fine    -11        4        1
  DFT-med.    -10        5        1
  DFT-grad    -12        6        1
  DFT-der2      0        0        1
  DFT-cphf      0        0        1
  LMP2-enrg     4        2        1
  LMP2-grad     2        1        1
  DFT-cphf2     0        0        1
  PBF-dens      0        0        1
  plotting      0        0        1
  Rel-grad    -17        0        1
  
  number of gridpoints: 
     atom        C1       C2       C3       C4       C5       H6       C7
  grid # 1       78       99       86       87       90      106      100
  grid # 2      271      345      282      290      326      419      367
  grid # 3        6        6        6        6        6      555      107
  grid # 4     4304     4304     4304     4304     4304     4304     4304
  grid # 5     1192     1192     1192     1192     1192     1192     1192
  grid # 6     5226     5226     5226     5226     5226     5226     5226
   
  number of gridpoints: 
     atom        C8       C9      C10      C11      C12      C13      C14
  grid # 1       95       97       96       97      101       86       85
  grid # 2      338      334      353      336      364      289      293
  grid # 3      188      229      234      211      134        6        6
  grid # 4     4304     4304     4304     4304     4304     4304     4304
  grid # 5     1192     1192     1192     1192     1192     1192     1192
  grid # 6     5226     5226     5226     5226     5226     5226     5226
   
  number of gridpoints: 
     atom       C15      H16      C17      H18      C19      C20      C21
  grid # 1       93      107       93      108       85       83       95
  grid # 2      338      420      341      425      305      288      359
  grid # 3        7      460       25      579        8        6       57
  grid # 4     4304     4304     4304     4304     4304     4304     4304
  grid # 5     1192     1192     1192     1192     1192     1192     1192
  grid # 6     5226     5226     5226     5226     5226     5226     5226
   
  number of gridpoints: 
     atom       O22      O23      H24      H25      H26      H27      H28
  grid # 1      122      114      101      110      102      108      109
  grid # 2      498      427      398      439      408      423      435
  grid # 3     1100      818      388      934      563      640      829
  grid # 4     4304     4304     4304     4304     4304     4304     4304
  grid # 5     1192     1192     1192     1192     1192     1192     1192
  grid # 6     5226     5226     5226     5226     5226     5226     5226
   
  number of gridpoints: 
     atom       H29      H30      H31      H32      H33      H34      H35
  grid # 1      107      103      109      117      116      110      109
  grid # 2      418      407      428      440      446      437      435
  grid # 3      634      438      748     1142     1060      924      821
  grid # 4     4304     4304     4304     4304     4304     4304     4304
  grid # 5     1192     1192     1192     1192     1192     1192     1192
  grid # 6     5226     5226     5226     5226     5226     5226     5226
   
  number of gridpoints: 
     atom       H36      H37      H38      H39      H40      H41      H42
  grid # 1      108      112      113      102      114      112      113
  grid # 2      428      436      446      402      443      440      449
  grid # 3      738      885     1165      425     1035     1073     1278
  grid # 4     4304     4304     4304     4304     4304     4304     4304
  grid # 5     1192     1192     1192     1192     1192     1192     1192
  grid # 6     5226     5226     5226     5226     5226     5226     5226
   
  number of gridpoints: 
     atom     total
  grid # 1     4278
  grid # 2    16166
  grid # 3    20480
  grid # 4   180768
  grid # 5    50064
  grid # 6   219492
   
  Peak memory usage:   4788 Mb
  
  end of program grid
   
 Time(grid)  user:       24.4  user+sys:       24.4  wallclock:        2.4
  
  start of program rwr
  
  Peak memory usage:   4745 Mb
  
  end of program rwr
   
 Time(rwr)  user:       49.9  user+sys:       49.9  wallclock:        4.9
  
  start of program scf
  
 Energy computed with NOPS off.
  
       i  u  d  i  g                   
       t  p  i  c  r                                 RMS    maximum
       e  d  i  u  i                       energy  density   DIIS  
       r  t  s  t  d       total energy    change  change    error 
  
etot    1  N  N  2  U    -848.83796365591           1.4E-03  1.4E-02
etot    2  Y  Y  6  M    -848.88461204467  4.7E-02  9.8E-04  3.3E-03
etot    3  N  Y  2  U    -848.87567742111 -8.9E-03  1.4E-03  3.1E-02
etot    4  N  Y  2  U    -848.88102933288  5.4E-03  6.1E-04  2.3E-02
etot    5  Y  Y  6  M    -848.88647574648  5.4E-03  6.2E-05  1.6E-03
etot    6  N  Y  2  U    -848.88660894323  1.3E-04  5.8E-05  1.9E-03
etot    7  Y  Y  6  M    -848.88665885825  5.0E-05  1.8E-05  2.8E-04
etot    8  N  Y  2  U    -848.88665451308 -4.3E-06  6.4E-06  1.9E-04
etot    9  N  Y  2  U    -848.88665541785  9.0E-07  5.0E-06  1.3E-04
etot   10  N  Y  2  U    -848.88665576551  3.5E-07  2.9E-06  9.2E-05
etot   11  N  N  2  U    -848.88665592595  1.6E-07  0.0E+00  0.0E+00
  
  
 Energy components, in hartrees:
   (A)  Nuclear repulsion............    1567.21790813012
   (E)  Total one-electron terms.....   -4243.51499028349
   (I)  Total two-electron terms.....    1827.41042622742
   (L)  Electronic energy............   -2416.10456405607  (E+I)
   (N)  Total energy.................    -848.88665592595  (A+L)
   (O)  Gas phase energy.............    -848.88665592595
  
                                 Total             Coulomb       Exchange+Corr.
 Total two-electron terms    1827.41042622742    1950.09657386509    -122.68614763767
   Hamiltonian  1........     937.64994265954     981.38152408061     -43.73158142107
   Hamiltonian  2........     925.44437359207     968.71504978448     -43.27067619241
  
 SCFE: SCF energy: UDFT(b3lyp)      -848.88665592595 hartrees   iterations:  11
  
 
 Alpha HOMO energy:    -0.37281
 Alpha LUMO energy:    -0.16179
 
  Alpha Orbital energies (hartrees): 
   -19.33285   -19.31125   -10.43089   -10.40866   -10.36766   -10.36715
   -10.35964   -10.35525   -10.34434   -10.34375   -10.33787   -10.33717
   -10.32944   -10.32942   -10.32753   -10.31558   -10.31349   -10.30679
   -10.30559   -10.30073    -1.22926    -1.22623    -1.01823    -1.00093
    -0.95561    -0.93376    -0.90992    -0.88718    -0.87186    -0.85103
    -0.81924    -0.79030    -0.77563    -0.76702    -0.76038    -0.72571
    -0.72098    -0.68081    -0.67311    -0.65763    -0.63373    -0.62290
    -0.61738    -0.60463    -0.59673    -0.59511    -0.58901    -0.57531
    -0.56859    -0.56495    -0.55438    -0.54766    -0.53809    -0.53368
    -0.52602    -0.52416    -0.51935    -0.50833    -0.49944    -0.48892
    -0.48714    -0.48521    -0.47789    -0.46566    -0.46250    -0.45723
    -0.44104    -0.43329    -0.42443    -0.40632    -0.38824    -0.37542
    -0.37281    -0.16179    -0.14883    -0.14212    -0.12604    -0.06344
    -0.05134    -0.03720    -0.02827    -0.02526    -0.01775
 
 
 Beta HOMO energy:    -0.34161
 Beta LUMO energy:    -0.32495
 
  Beta Orbital energies (hartrees): 
   -19.32956   -19.30490   -10.43107   -10.40709   -10.36635   -10.36614
   -10.35889   -10.35228   -10.34461   -10.34377   -10.33798   -10.33634
   -10.32943   -10.32863   -10.32631   -10.31552   -10.31347   -10.30675
   -10.30564   -10.30064    -1.21931    -1.21795    -1.01438    -0.99743
    -0.95288    -0.93253    -0.90652    -0.88512    -0.86772    -0.84917
    -0.81825    -0.78760    -0.77359    -0.76517    -0.75757    -0.72377
    -0.71860    -0.67746    -0.67129    -0.65468    -0.63181    -0.62130
    -0.61477    -0.59743    -0.59448    -0.59246    -0.58550    -0.57342
    -0.56667    -0.55775    -0.55012    -0.54380    -0.53619    -0.53036
    -0.52251    -0.52003    -0.51596    -0.50289    -0.49695    -0.48661
    -0.48543    -0.48068    -0.47583    -0.46334    -0.46044    -0.44811
    -0.43657    -0.43074    -0.41845    -0.39760    -0.38476    -0.34161
    -0.32495    -0.15869    -0.14255    -0.13058    -0.11944    -0.06226
    -0.04804    -0.03637    -0.02684    -0.02394
 
  
  
    Unrestricted Spin Properties ...
    Sz*(Sz+1)      0.750
    <S**2> ...     0.756
  
  
  Peak memory usage:   6748 Mb
  
  end of program scf
   
 Time(scf)  user:      203.1  user+sys:      203.1  wallclock:       14.1
  
  start of program der1a
  
  Peak memory usage:   4838 Mb
  
  end of program der1a
   
 Time(der1a)  user:        2.4  user+sys:        2.4  wallclock:        0.5
  
  start of program rwr
  
  Peak memory usage:   4745 Mb
  
  end of program rwr
   
 Time(rwr)  user:       42.4  user+sys:       42.4  wallclock:        5.3
  
  start of program der1b
  
   
  forces (hartrees/bohr) : total     
   
 atom  label           x              y              z
 ---- --------   -------------  -------------  -------------
    1 C1         -1.292471E-02   3.570104E-03   2.859755E-02
    2 C2         -3.086973E-02   3.032128E-02   2.266860E-03
    3 C3          1.251519E-02  -1.770654E-03  -8.847041E-03
    4 C4          1.809779E-03   3.057186E-03  -1.554005E-02
    5 C5         -8.609515E-03   4.411164E-03  -1.950629E-03
    6 H6         -2.594042E-03  -1.496274E-03   8.205323E-03
    7 C7          1.632268E-03   4.817610E-03   8.651898E-03
    8 C8         -4.525054E-03   3.927362E-03  -8.935665E-03
    9 C9          7.529505E-03   2.237698E-02   6.657682E-03
   10 C10        -3.101695E-03  -1.222152E-02  -7.707500E-04
   11 C11         3.496883E-03  -1.732827E-03   1.778569E-02
   12 C12        -5.026793E-03  -1.730446E-02  -7.145484E-03
   13 C13        -1.708825E-03   3.828562E-03   5.821627E-03
   14 C14        -2.535112E-03   3.571304E-03  -2.854335E-03
   15 C15         3.052617E-03  -2.216742E-02   2.189515E-03
   16 H16        -3.086476E-03   3.314853E-03  -1.536574E-03
   17 C17         1.251633E-02  -4.971939E-02   1.071065E-02
   18 H18         2.911019E-02   3.930392E-03  -2.383594E-02
   19 C19        -6.875400E-02   3.376317E-02  -2.662271E-02
   20 C20         6.383608E-04  -2.611102E-02  -1.179384E-03
   21 C21        -8.567041E-03   7.747184E-03   1.601868E-02
   22 O22         2.589268E-02   1.258827E-02  -2.059447E-02
   23 O23         2.586316E-03   3.551967E-03   5.966560E-03
   24 H24         1.500634E-02   1.265728E-02  -5.946261E-03
   25 H25        -4.537068E-04   3.992315E-03  -4.962179E-03
   26 H26         1.071926E-02   1.576733E-02   6.452561E-03
   27 H27         1.688202E-03   4.686796E-04   3.650055E-03
   28 H28         9.758046E-04   4.000870E-04   5.518958E-04
   29 H29         8.927503E-03  -7.717172E-03  -2.561472E-03
   30 H30         3.420993E-03   3.245337E-03   5.248977E-05
   31 H31        -9.661366E-04  -1.277066E-03   3.792178E-03
   32 H32         8.616587E-04  -1.568291E-03  -1.619085E-04
   33 H33         7.371069E-04   1.648110E-03   4.133282E-04
   34 H34        -6.796653E-04   1.017972E-03   3.549102E-03
   35 H35        -9.143964E-04  -2.874995E-03   1.744076E-03
   36 H36        -5.143518E-03   5.516341E-03   5.443842E-03
   37 H37        -4.401770E-03   5.323107E-04   1.762056E-03
   38 H38         2.052363E-02  -1.996447E-02   6.398779E-05
   39 H39        -4.017088E-05  -2.388188E-02  -6.052201E-03
   40 H40         1.243109E-02   1.462470E-02  -1.460808E-03
   41 H41        -8.195353E-03  -1.107237E-02   8.686528E-03
   42 H42        -2.564518E-03  -3.691088E-03  -7.846741E-03
 -------------   -------------  -------------  -------------
     total        4.094939E-04   7.694400E-05   2.295543E-04
   
  Peak memory usage:   6742 Mb
  
  end of program der1b
   
 Time(der1b)  user:       51.0  user+sys:       51.0  wallclock:        3.6
  
  start of program geopt
  
 ----------------------------------------------------------------------------
  Geometry optimization step  2
  Total energy:      -848.88665592595 hartrees
 ----------------------------------------------------------------------------
  
  
  Level shifts adjusted to satisfy step-size constraints
   Step size:    0.3000622
   Cos(theta):   0.7679072
   Final level shift:  -6.0233079E-01
  
  energy change:          -8.7922E-02 .  (  5.0000E-05 )
  gradient maximum:        1.7964E-01 .  (  4.5000E-04 )
  gradient rms:            3.1754E-02 .  (  3.0000E-04 )
  displacement maximum:    1.2794E-01 .  (  1.8000E-03 )
  displacement rms:        2.5450E-02 .  (  1.2000E-03 )
  
  predicted energy change:  -7.0244E-02
  step size:     0.30005
  trust radius:  0.30000
  
  molecular structure not yet converged...
  
  center of mass moved by:
     x:    -9.6545E-03     y:     4.7962E-03     z:     4.0849E-03
  
  new geometry: 
                                   angstroms
  atom               x                 y                 z
  C1            0.7319332356      0.6976357787     -0.5298646136 
  C2            2.3340283961      0.4925572471     -0.1596696966 
  C3            3.0736030347      0.9473669608     -1.4040627687 
  C4            2.6065845092      0.1820149920     -2.6295697704 
  C5            2.8480355221     -1.3074319553     -2.3313070495 
  H6            3.9408983773     -1.4324656292     -2.2254812338 
  C7            2.4651783813     -2.2376240750     -3.4922725674 
  C8            2.3101871715     -1.7580738857     -4.8200292860 
  C9            1.8886497016     -2.5889160412     -5.8504345788 
  C10           1.6660069230     -3.9495338457     -5.5789437567 
  C11           1.8870200183     -4.4665036423     -4.2931633778 
  C12           2.2944252940     -3.6287843091     -3.2489662828 
  C13           2.4664194204     -4.2269778081     -1.8619463902 
  C14           2.9985975236     -3.2484536528     -0.7663450506 
  C15           2.2296362679     -1.8866327372     -0.9049814787 
  H16           1.1701232472     -2.1013346407     -1.0678528328 
  C17           2.2743246628     -0.8650116934      0.5174866708 
  H18           3.0541610089     -1.3276951988      1.1348455655 
  C19           1.4068779798     -0.4563307456      1.9107971163 
  C20           2.1579193156      0.8463010547      2.3778177247 
  C21           3.0206558910      1.0597259268      1.1416103538 
  O22           4.2437519827      1.1296078109      1.2424505965 
  O23           1.2319019449     -4.8290052189     -6.5326797681 
  H24           0.4446917889      0.1413383872     -1.4199012855 
  H25           0.4489020141      1.7476444781     -0.5937054493 
  H26           0.0520784776      0.1966565088      0.1754408735 
  H27           4.1537927546      0.7717018732     -1.3354558503 
  H28           2.9279136858      2.0321103403     -1.4831417273 
  H29           3.1552231763      0.5644271871     -3.4958766652 
  H30           1.5681055281      0.3686209125     -2.9010973950 
  H31           2.5054990989     -0.7207412243     -5.0643129271 
  H32           1.7319736379     -2.1740557991     -6.8416473351 
  H33           1.7131260733     -5.5257425251     -4.1298739767 
  H34           3.1466813570     -5.0868151839     -1.9319411393 
  H35           1.4935774480     -4.6296440900     -1.5505713797 
  H36           4.0774646902     -3.1111236922     -0.9380673498 
  H37           2.9024599908     -3.7252151416      0.2125597336 
  H38           1.0207664399     -1.1057554947      2.6975551712 
  H39           0.4569590318      0.0084031719      1.5879338417 
  H40           2.7444623497      0.5911584546      3.2589447947 
  H41           1.5508336403      1.7539622355      2.5090705872 
  H42           1.1047212243     -4.3813596834     -7.3932576268 
   
  nuclear repulsion energy.......    1567.482749940 hartrees
  -------------------------------------------------
 /  end of geometry optimization iteration   2   /
 -------------------------------------------------
   
  Peak memory usage:   4727 Mb
  
  end of program geopt
   
 Time(geopt)  user:        6.7  user+sys:        6.7  wallclock:        0.6
  
  start of program onee
  
  smallest eigenvalue of S:    5.435E-04
  number of canonical orbitals.....          224
  Peak memory usage:   4838 Mb
  
  end of program onee
   
 Time(onee)  user:        2.9  user+sys:        2.9  wallclock:        0.5
  
  start of program probe
  
  Peak memory usage:   4756 Mb
  
  end of program probe
   
 Time(probe)  user:        2.2  user+sys:        2.2  wallclock:        0.5
  
  start of program grid
  
   grid     grid set  grid #  grid sym
  ------    --------  ------  --------
  coarse        0        0        1
  medium        2        1        1
  fine          0        0        1
  ultrafine     4        2        1
  charge       -1        3        1
  gradient      4        2        1
  density       0        0        1
  DFT-fine    -11        4        1
  DFT-med.    -10        5        1
  DFT-grad    -12        6        1
  DFT-der2      0        0        1
  DFT-cphf      0        0        1
  LMP2-enrg     4        2        1
  LMP2-grad     2        1        1
  DFT-cphf2     0        0        1
  PBF-dens      0        0        1
  plotting      0        0        1
  Rel-grad    -17        0        1
  
  number of gridpoints: 
     atom        C1       C2       C3       C4       C5       H6       C7
  grid # 1       78       98       86       87       91      106      100
  grid # 2      271      349      287      293      331      420      366
  grid # 3        6        6        6        6        6      535      108
  grid # 4     4304     4304     4304     4304     4304     4304     4304
  grid # 5     1192     1192     1192     1192     1192     1192     1192
  grid # 6     5226     5226     5226     5226     5226     5226     5226
   
  number of gridpoints: 
     atom        C8       C9      C10      C11      C12      C13      C14
  grid # 1       96       97       97       97       99       86       86
  grid # 2      340      336      355      336      363      289      293
  grid # 3      193      230      243      212      131        6        6
  grid # 4     4304     4304     4304     4304     4304     4304     4304
  grid # 5     1192     1192     1192     1192     1192     1192     1192
  grid # 6     5226     5226     5226     5226     5226     5226     5226
   
  number of gridpoints: 
     atom       C15      H16      C17      H18      C19      C20      C21
  grid # 1       94      108       93      107       88       82       96
  grid # 2      334      423      333      422      301      291      362
  grid # 3        6      500       18      501        7        6       84
  grid # 4     4304     4304     4304     4304     4304     4304     4304
  grid # 5     1192     1192     1192     1192     1192     1192     1192
  grid # 6     5226     5226     5226     5226     5226     5226     5226
   
  number of gridpoints: 
     atom       O22      O23      H24      H25      H26      H27      H28
  grid # 1      122      114      103      112      101      109      110
  grid # 2      498      427      404      442      396      423      436
  grid # 3     1106      806      442      970      485      636      849
  grid # 4     4304     4304     4304     4304     4304     4304     4304
  grid # 5     1192     1192     1192     1192     1192     1192     1192
  grid # 6     5226     5226     5226     5226     5226     5226     5226
   
  number of gridpoints: 
     atom       H29      H30      H31      H32      H33      H34      H35
  grid # 1      107      104      110      117      116      109      109
  grid # 2      421      411      430      443      445      436      434
  grid # 3      668      492      758     1150     1051      925      830
  grid # 4     4304     4304     4304     4304     4304     4304     4304
  grid # 5     1192     1192     1192     1192     1192     1192     1192
  grid # 6     5226     5226     5226     5226     5226     5226     5226
   
  number of gridpoints: 
     atom       H36      H37      H38      H39      H40      H41      H42
  grid # 1      108      112      113       99      114      113      114
  grid # 2      425      435      445      394      442      441      450
  grid # 3      716      842     1142      412     1027     1061     1294
  grid # 4     4304     4304     4304     4304     4304     4304     4304
  grid # 5     1192     1192     1192     1192     1192     1192     1192
  grid # 6     5226     5226     5226     5226     5226     5226     5226
   
  number of gridpoints: 
     atom     total
  grid # 1     4288
  grid # 2    16173
  grid # 3    20478
  grid # 4   180768
  grid # 5    50064
  grid # 6   219492
   
  Peak memory usage:   4788 Mb
  
  end of program grid
   
 Time(grid)  user:       26.0  user+sys:       26.0  wallclock:        2.3
  
  start of program rwr
  
  Peak memory usage:   4745 Mb
  
  end of program rwr
   
 Time(rwr)  user:       48.7  user+sys:       48.7  wallclock:        4.9
  
  start of program scf
  
 Energy computed with NOPS off.
  
       i  u  d  i  g                   
       t  p  i  c  r                                 RMS    maximum
       e  d  i  u  i                       energy  density   DIIS  
       r  t  s  t  d       total energy    change  change    error 
  
etot    1  N  N  2  U    -848.92554100339           1.3E-03  1.0E-02
etot    2  Y  Y  6  M    -848.95474192455  2.9E-02  2.6E-03  1.7E-02
etot    3  N  Y  2  U    -848.87107799326 -8.4E-02  2.5E-03  4.3E-02
etot    4  N  Y  2  U    -848.95627162388  8.5E-02  2.6E-04  1.0E-02
etot    5  Y  Y  6  M    -848.95865314986  2.4E-03  1.7E-04  3.3E-03
etot    6  Y  Y  6  M    -848.95867112196  1.8E-05  1.1E-04  3.3E-03
etot    7  N  Y  2  U    -848.95880876562  1.4E-04  3.1E-05  1.3E-03
etot    8  N  Y  2  U    -848.95882372084  1.5E-05  6.5E-06  8.3E-05
etot    9  N  Y  2  U    -848.95882425374  5.3E-07  6.0E-06  1.1E-04
etot   10  N  Y  2  U    -848.95882464058  3.9E-07  4.2E-06  4.9E-05
etot   11  N  N  2  U    -848.95882485816  2.2E-07  0.0E+00  0.0E+00
  
  
 Energy components, in hartrees:
   (A)  Nuclear repulsion............    1567.48274993970
   (E)  Total one-electron terms.....   -4244.22070936770
   (I)  Total two-electron terms.....    1827.77913456983
   (L)  Electronic energy............   -2416.44157479786  (E+I)
   (N)  Total energy.................    -848.95882485816  (A+L)
   (O)  Gas phase energy.............    -848.95882485816
  
                                 Total             Coulomb       Exchange+Corr.
 Total two-electron terms    1827.77913456983    1950.47255914178    -122.69342457195
   Hamiltonian  1........     937.81253348378     981.54675662142     -43.73422313764
   Hamiltonian  2........     925.65177874185     968.92580252037     -43.27402377851
  
 SCFE: SCF energy: UDFT(b3lyp)      -848.95882485816 hartrees   iterations:  11
  
 
 Alpha HOMO energy:    -0.37524
 Alpha LUMO energy:    -0.15894
 
  Alpha Orbital energies (hartrees): 
   -19.34106   -19.30397   -10.42382   -10.41799   -10.36277   -10.35996
   -10.35283   -10.35050   -10.35020   -10.34543   -10.34400   -10.34274
   -10.33396   -10.32297   -10.32124   -10.31626   -10.31098   -10.30652
   -10.30535   -10.29960    -1.23197    -1.21416    -1.02230    -0.99561
    -0.95548    -0.93376    -0.90975    -0.88839    -0.86837    -0.84995
    -0.81449    -0.79444    -0.77764    -0.76896    -0.76085    -0.72659
    -0.72080    -0.67863    -0.67676    -0.65008    -0.63772    -0.62500
    -0.61335    -0.60017    -0.59323    -0.58853    -0.58426    -0.57731
    -0.57076    -0.56541    -0.55584    -0.54860    -0.53845    -0.53024
    -0.52696    -0.52134    -0.51866    -0.50421    -0.50219    -0.49084
    -0.48673    -0.48526    -0.48011    -0.46957    -0.46094    -0.46035
    -0.44082    -0.43401    -0.42502    -0.41370    -0.39495    -0.37784
    -0.37524    -0.15894    -0.15253    -0.14983    -0.08594    -0.06942
    -0.03944    -0.02821    -0.02680    -0.02143    -0.01613
 
 
 Beta HOMO energy:    -0.34214
 Beta LUMO energy:    -0.32553
 
  Beta Orbital energies (hartrees): 
   -19.33750   -19.29766   -10.42404   -10.41615   -10.35937   -10.35874
   -10.35243   -10.35034   -10.34982   -10.34435   -10.34400   -10.34296
   -10.33332   -10.32193   -10.32122   -10.31621   -10.31095   -10.30649
   -10.30528   -10.29964    -1.22445    -1.20282    -1.01780    -0.99274
    -0.95245    -0.93280    -0.90647    -0.88531    -0.86501    -0.84814
    -0.81371    -0.79178    -0.77550    -0.76713    -0.75824    -0.72525
    -0.71813    -0.67571    -0.67480    -0.64727    -0.63572    -0.62306
    -0.61125    -0.59661    -0.58811    -0.58625    -0.58109    -0.57498
    -0.56338    -0.56082    -0.55046    -0.54615    -0.53687    -0.52658
    -0.52433    -0.51692    -0.51399    -0.50233    -0.49725    -0.48864
    -0.48493    -0.48062    -0.47801    -0.46705    -0.45897    -0.45136
    -0.43879    -0.43281    -0.41801    -0.40677    -0.39120    -0.34214
    -0.32553    -0.15601    -0.14592    -0.13300    -0.08354    -0.06810
    -0.03801    -0.02718    -0.02553    -0.01878
 
  
  
    Unrestricted Spin Properties ...
    Sz*(Sz+1)      0.750
    <S**2> ...     0.756
  
  
  Peak memory usage:   6748 Mb
  
  end of program scf
   
 Time(scf)  user:      214.2  user+sys:      214.2  wallclock:       15.3
  
  start of program der1a
  
  Peak memory usage:   4838 Mb
  
  end of program der1a
   
 Time(der1a)  user:        2.4  user+sys:        2.4  wallclock:        0.5
  
  start of program rwr
  
  Peak memory usage:   4745 Mb
  
  end of program rwr
   
 Time(rwr)  user:       41.8  user+sys:       41.8  wallclock:        4.9
  
  start of program der1b
  
   
  forces (hartrees/bohr) : total     
   
 atom  label           x              y              z
 ---- --------   -------------  -------------  -------------
    1 C1          4.177694E-03   2.387703E-03   1.946265E-02
    2 C2         -3.747832E-02   3.382654E-02   1.303629E-02
    3 C3          1.241846E-02  -7.751575E-03  -1.244175E-03
    4 C4         -1.087774E-03   1.242997E-03  -5.922158E-03
    5 C5         -6.943714E-03  -1.143154E-03   3.108731E-03
    6 H6         -3.191451E-04   1.295546E-03   3.637112E-03
    7 C7          3.175992E-03   4.946417E-03   8.649592E-03
    8 C8         -3.738871E-03   1.112699E-03  -5.599391E-03
    9 C9          4.414686E-03   1.302181E-02   2.839540E-03
   10 C10        -2.766888E-03  -9.965269E-03  -2.188667E-03
   11 C11         1.930388E-03   6.983285E-04   9.943783E-03
   12 C12        -4.229807E-03  -1.243263E-02  -2.051512E-03
   13 C13         2.426549E-03   2.318702E-03   4.725641E-03
   14 C14        -7.450433E-03   1.902514E-03  -7.358246E-03
   15 C15        -2.653826E-03  -6.562678E-03   1.552941E-02
   16 H16        -2.038844E-03   9.152610E-04  -1.676864E-03
   17 C17         7.711925E-03  -6.076830E-02  -7.379123E-03
   18 H18         2.484829E-02   1.062094E-02  -2.078671E-02
   19 C19        -5.582951E-02   3.081760E-02  -2.884080E-02
   20 C20         3.585734E-03  -2.014672E-02  -5.434460E-03
   21 C21         2.059134E-04  -2.846775E-03   9.866247E-03
   22 O22         8.572191E-03   1.810634E-02  -1.151693E-02
   23 O23         2.989457E-03   7.458956E-03   4.576817E-03
   24 H24         1.174110E-02   8.826019E-03  -9.783908E-03
   25 H25         1.158546E-03   2.072583E-03  -5.168729E-03
   26 H26         7.190789E-03   1.421571E-02  -3.467850E-03
   27 H27         1.944335E-03   3.337585E-03   6.806832E-03
   28 H28        -2.211990E-04  -1.768164E-03  -2.791607E-03
   29 H29         7.692457E-03  -7.351678E-03  -8.327095E-04
   30 H30        -2.771006E-03   2.459947E-04   2.912371E-03
   31 H31        -1.372315E-03  -2.334353E-04   2.931148E-03
   32 H32         6.449832E-04  -1.793383E-03  -4.197947E-04
   33 H33         6.203800E-04   1.170751E-03   9.239224E-05
   34 H34        -8.750513E-04  -2.685856E-04   8.265133E-04
   35 H35        -3.863129E-04  -9.019232E-04   1.455546E-03
   36 H36        -2.811362E-03   4.108591E-03   3.735108E-03
   37 H37        -4.182514E-03   1.939567E-03   1.433366E-03
   38 H38         2.480379E-02  -1.585759E-02  -1.146734E-03
   39 H39         5.265439E-03  -1.698381E-02   5.382479E-03
   40 H40         6.564005E-03   1.305008E-02   9.347572E-04
   41 H41        -4.641269E-03  -9.379741E-03   6.160534E-03
   42 H42        -1.772205E-03  -3.849034E-03  -4.715882E-03
 -------------   -------------  -------------  -------------
     total        5.127340E-04  -3.652207E-04  -2.793680E-04
   
  Peak memory usage:   6742 Mb
  
  end of program der1b
   
 Time(der1b)  user:       50.7  user+sys:       50.7  wallclock:        3.6
  
  start of program geopt
  
 ----------------------------------------------------------------------------
  Geometry optimization step  3
  Total energy:      -848.95882485816 hartrees
 ----------------------------------------------------------------------------
  
  
  Level shifts adjusted to satisfy step-size constraints
   Step size:    0.3002343
   Cos(theta):   0.8769681
   Final level shift:  -5.8182299E-01
  
  energy change:          -7.2169E-02 .  (  5.0000E-05 )
  gradient maximum:        9.7730E-02 .  (  4.5000E-04 )
  gradient rms:            2.1225E-02 .  (  3.0000E-04 )
  displacement maximum:    1.2032E-01 .  (  1.8000E-03 )
  displacement rms:        2.5464E-02 .  (  1.2000E-03 )
  
  predicted energy change:  -5.9164E-02
  step size:     0.30021
  trust radius:  0.30000
  
  molecular structure not yet converged...
  
  center of mass moved by:
     x:    -1.9232E-02     y:     1.4455E-02     z:     2.1320E-02
  
  new geometry: 
                                   angstroms
  atom               x                 y                 z
  C1            0.8034988849      0.8765356552     -0.5559895427 
  C2            2.3681481320      0.5535177976     -0.1860244842 
  C3            3.1206412458      0.9929778813     -1.4293095646 
  C4            2.6330902753      0.2081154871     -2.6479639167 
  C5            2.8445853987     -1.2905355100     -2.3420662070 
  H6            3.9345014481     -1.4335165766     -2.2288921252 
  C7            2.4496809826     -2.2383802941     -3.4764187021 
  C8            2.2845693426     -1.7729144602     -4.8085675823 
  C9            1.8629746046     -2.6184061585     -5.8222119815 
  C10           1.6494050168     -3.9832926446     -5.5298357512 
  C11           1.8801771892     -4.4859323157     -4.2368536195 
  C12           2.2868093775     -3.6357154761     -3.2113076580 
  C13           2.4638650850     -4.2172144503     -1.8175889092 
  C14           2.9981469754     -3.2206935342     -0.7495713025 
  C15           2.2485245779     -1.8684907953     -0.9236559098 
  H16           1.1808888282     -2.0599050612     -1.0724509028 
  C17           2.3591873170     -0.8511645885      0.4522773263 
  H18           3.2384849319     -1.2613752469      0.9664274993 
  C19           1.4848601711     -0.6625293606      1.7169997181 
  C20           2.0548192183      0.6856417105      2.3282513543 
  C21           2.9487952548      1.1101224121      1.1598145671 
  O22           4.1687383490      1.2217781237      1.3199061942 
  O23           1.2182527355     -4.8821988383     -6.4637238753 
  H24           0.5136646702      0.3561748961     -1.4676412435 
  H25           0.6006455214      1.9471193623     -0.6075829271 
  H26           0.0869641650      0.4313607264      0.1341767645 
  H27           4.1922728918      0.7661719406     -1.3548010286 
  H28           3.0178582259      2.0815639324     -1.5066478005 
  H29           3.1960269896      0.5506823972     -3.5235383796 
  H30           1.5971767142      0.4214456048     -2.9169848248 
  H31           2.4781298689     -0.7372017664     -5.0573904713 
  H32           1.6986998631     -2.2235853374     -6.8200361290 
  H33           1.7143105999     -5.5434270263     -4.0605853649 
  H34           3.1464741854     -5.0757430443     -1.8757084425 
  H35           1.4942241101     -4.6214428367     -1.4956578561 
  H36           4.0765961198     -3.0821692493     -0.9092472131 
  H37           2.8861995941     -3.6669772082      0.2426034874 
  H38           1.2307101031     -1.4467565146      2.4313092740 
  H39           0.4645994870     -0.3549277873      1.4647320745 
  H40           2.6569117104      0.4654105898      3.2094896052 
  H41           1.3142566157      1.4692613078      2.5281248346 
  H42           1.0792241578     -4.4646485828     -7.3396119331 
   
  nuclear repulsion energy.......    1572.366309747 hartrees
  -------------------------------------------------
 /  end of geometry optimization iteration   3   /
 -------------------------------------------------
   
  Peak memory usage:   4727 Mb
  
  end of program geopt
   
 Time(geopt)  user:        7.7  user+sys:        7.7  wallclock:        0.6
  
  start of program onee
  
  smallest eigenvalue of S:    5.494E-04
  number of canonical orbitals.....          224
  Peak memory usage:   4838 Mb
  
  end of program onee
   
 Time(onee)  user:        2.3  user+sys:        2.3  wallclock:        0.5
  
  start of program probe
  
  Peak memory usage:   4756 Mb
  
  end of program probe
   
 Time(probe)  user:        1.6  user+sys:        1.6  wallclock:        0.4
  
  start of program grid
  
   grid     grid set  grid #  grid sym
  ------    --------  ------  --------
  coarse        0        0        1
  medium        2        1        1
  fine          0        0        1
  ultrafine     4        2        1
  charge       -1        3        1
  gradient      4        2        1
  density       0        0        1
  DFT-fine    -11        4        1
  DFT-med.    -10        5        1
  DFT-grad    -12        6        1
  DFT-der2      0        0        1
  DFT-cphf      0        0        1
  LMP2-enrg     4        2        1
  LMP2-grad     2        1        1
  DFT-cphf2     0        0        1
  PBF-dens      0        0        1
  plotting      0        0        1
  Rel-grad    -17        0        1
  
  number of gridpoints: 
     atom        C1       C2       C3       C4       C5       H6       C7
  grid # 1       78       99       86       87       91      105       99
  grid # 2      270      350      286      293      329      419      363
  grid # 3        6        6        6        6        6      520      108
  grid # 4     4304     4304     4304     4304     4304     4304     4304
  grid # 5     1192     1192     1192     1192     1192     1192     1192
  grid # 6     5226     5226     5226     5226     5226     5226     5226
   
  number of gridpoints: 
     atom        C8       C9      C10      C11      C12      C13      C14
  grid # 1       97       97       97       97       99       86       86
  grid # 2      339      337      360      336      363      290      290
  grid # 3      195      230      244      209      127        6        6
  grid # 4     4304     4304     4304     4304     4304     4304     4304
  grid # 5     1192     1192     1192     1192     1192     1192     1192
  grid # 6     5226     5226     5226     5226     5226     5226     5226
   
  number of gridpoints: 
     atom       C15      H16      C17      H18      C19      C20      C21
  grid # 1       94      108       95      108       88       82      100
  grid # 2      329      427      325      421      294      294      367
  grid # 3        6      511        7      471        6        6      109
  grid # 4     4304     4304     4304     4304     4304     4304     4304
  grid # 5     1192     1192     1192     1192     1192     1192     1192
  grid # 6     5226     5226     5226     5226     5226     5226     5226
   
  number of gridpoints: 
     atom       O22      O23      H24      H25      H26      H27      H28
  grid # 1      122      114      102      111      100      109      110
  grid # 2      500      425      407      439      403      425      439
  grid # 3     1124      800      443      969      513      657      853
  grid # 4     4304     4304     4304     4304     4304     4304     4304
  grid # 5     1192     1192     1192     1192     1192     1192     1192
  grid # 6     5226     5226     5226     5226     5226     5226     5226
   
  number of gridpoints: 
     atom       H29      H30      H31      H32      H33      H34      H35
  grid # 1      107      104      110      118      115      109      109
  grid # 2      420      412      429      444      444      436      435
  grid # 3      673      491      749     1154     1050      923      833
  grid # 4     4304     4304     4304     4304     4304     4304     4304
  grid # 5     1192     1192     1192     1192     1192     1192     1192
  grid # 6     5226     5226     5226     5226     5226     5226     5226
   
  number of gridpoints: 
     atom       H36      H37      H38      H39      H40      H41      H42
  grid # 1      107      110      112      102      112      111      114
  grid # 2      424      433      441      400      444      442      450
  grid # 3      695      807     1048      452     1019     1029     1311
  grid # 4     4304     4304     4304     4304     4304     4304     4304
  grid # 5     1192     1192     1192     1192     1192     1192     1192
  grid # 6     5226     5226     5226     5226     5226     5226     5226
   
  number of gridpoints: 
     atom     total
  grid # 1     4287
  grid # 2    16174
  grid # 3    20384
  grid # 4   180768
  grid # 5    50064
  grid # 6   219492
   
  Peak memory usage:   4788 Mb
  
  end of program grid
   
 Time(grid)  user:       25.0  user+sys:       25.0  wallclock:        2.2
  
  start of program rwr
  
  Peak memory usage:   4745 Mb
  
  end of program rwr
   
 Time(rwr)  user:       52.6  user+sys:       52.6  wallclock:        4.8
  
  start of program scf
  
 Energy computed with NOPS off.
  
       i  u  d  i  g                   
       t  p  i  c  r                                 RMS    maximum
       e  d  i  u  i                       energy  density   DIIS  
       r  t  s  t  d       total energy    change  change    error 
  
etot    1  N  N  2  U    -848.98252793522           1.1E-03  1.1E-02
etot    2  Y  Y  6  M    -849.01223360919  3.0E-02  1.4E-03  5.3E-03
etot    3  N  Y  2  U    -848.98890864270 -2.3E-02  2.2E-03  4.9E-02
etot    4  N  Y  2  U    -848.99511689359  6.2E-03  8.7E-04  3.2E-02
etot    5  Y  Y  6  M    -849.01350036642  1.8E-02  1.9E-04  1.0E-02
etot    6  N  Y  2  U    -849.01446732366  9.7E-04  2.5E-05  3.4E-03
etot    7  N  Y  2  U    -849.01451710323  5.0E-05  2.0E-05  2.5E-03
etot    8  N  Y  2  U    -849.01454757153  3.0E-05  1.8E-05  1.7E-03
etot    9  N  Y  2  U    -849.01456518289  1.8E-05  1.5E-05  8.3E-04
etot   10  N  Y  2  U    -849.01457082031  5.6E-06  4.0E-06  1.2E-04
etot   11  N  N  2  U    -849.01457096815  1.5E-07  0.0E+00  0.0E+00
  
  
 Energy components, in hartrees:
   (A)  Nuclear repulsion............    1572.36630974673
   (E)  Total one-electron terms.....   -4254.02010064869
   (I)  Total two-electron terms.....    1832.63921993381
   (L)  Electronic energy............   -2421.38088071488  (E+I)
   (N)  Total energy.................    -849.01457096815  (A+L)
   (O)  Gas phase energy.............    -849.01457096815
  
                                 Total             Coulomb       Exchange+Corr.
 Total two-electron terms    1832.63921993381    1955.38502575776    -122.74580582395
   Hamiltonian  1........     940.23437694341     983.98658466279     -43.75220771938
   Hamiltonian  2........     928.10345220310     971.39844109497     -43.29498889186
  
 SCFE: SCF energy: UDFT(b3lyp)      -849.01457096815 hartrees   iterations:  11
  
 
 Alpha HOMO energy:    -0.37546
 Alpha LUMO energy:    -0.16217
 
  Alpha Orbital energies (hartrees): 
   -19.34744   -19.29961   -10.42518   -10.41819   -10.36857   -10.35514
   -10.35188   -10.35153   -10.34666   -10.34286   -10.34177   -10.33961
   -10.33787   -10.31862   -10.31735   -10.31200   -10.30930   -10.30774
   -10.30445   -10.29497    -1.23782    -1.20578    -1.02647    -0.99536
    -0.95773    -0.93627    -0.91193    -0.89091    -0.86789    -0.84709
    -0.81259    -0.80035    -0.78055    -0.77063    -0.76224    -0.72741
    -0.71963    -0.68047    -0.67809    -0.64595    -0.64106    -0.62747
    -0.61088    -0.60120    -0.59222    -0.58685    -0.58294    -0.57860
    -0.57512    -0.56421    -0.55561    -0.54805    -0.54093    -0.53358
    -0.52506    -0.52310    -0.51435    -0.50197    -0.49781    -0.49127
    -0.48693    -0.48464    -0.48164    -0.47297    -0.46638    -0.45969
    -0.44311    -0.43854    -0.42601    -0.41960    -0.40021    -0.38125
    -0.37546    -0.16217    -0.15669    -0.15597    -0.07494    -0.05074
    -0.03934    -0.03090    -0.02388    -0.01322    -0.01038
 
 
 Beta HOMO energy:    -0.34248
 Beta LUMO energy:    -0.32629
 
  Beta Orbital energies (hartrees): 
   -19.34368   -19.29359   -10.42313   -10.41841   -10.36484   -10.35519
   -10.35083   -10.35026   -10.34694   -10.34285   -10.34122   -10.33946
   -10.33733   -10.31769   -10.31733   -10.31198   -10.30928   -10.30768
   -10.30444   -10.29499    -1.22983    -1.19491    -1.02150    -0.99298
    -0.95449    -0.93525    -0.90911    -0.88683    -0.86526    -0.84514
    -0.81183    -0.79791    -0.77814    -0.76870    -0.75973    -0.72627
    -0.71705    -0.67830    -0.67566    -0.64357    -0.63889    -0.62521
    -0.60908    -0.59853    -0.58737    -0.58391    -0.58077    -0.57586
    -0.56332    -0.56122    -0.55028    -0.54653    -0.53960    -0.53012
    -0.52024    -0.51870    -0.51056    -0.49855    -0.49519    -0.48928
    -0.48534    -0.48195    -0.47783    -0.47130    -0.46066    -0.45381
    -0.44131    -0.43667    -0.42303    -0.41245    -0.39624    -0.34248
    -0.32629    -0.15969    -0.14904    -0.13730    -0.07354    -0.04910
    -0.03797    -0.02941    -0.02250    -0.01178
 
  
  
    Unrestricted Spin Properties ...
    Sz*(Sz+1)      0.750
    <S**2> ...     0.756
  
  
  Peak memory usage:   6748 Mb
  
  end of program scf
   
 Time(scf)  user:      219.5  user+sys:      219.5  wallclock:       15.2
  
  start of program der1a
  
  Peak memory usage:   4838 Mb
  
  end of program der1a
   
 Time(der1a)  user:        2.2  user+sys:        2.2  wallclock:        0.5
  
  start of program rwr
  
  Peak memory usage:   4745 Mb
  
  end of program rwr
   
 Time(rwr)  user:       49.3  user+sys:       49.3  wallclock:        5.6
  
  start of program der1b
  
   
  forces (hartrees/bohr) : total     
   
 atom  label           x              y              z
 ---- --------   -------------  -------------  -------------
    1 C1          8.930319E-03  -6.018194E-03   2.031990E-02
    2 C2         -3.956097E-02   3.409366E-02   1.308351E-02
    3 C3          1.657551E-02  -1.343037E-02   2.401365E-03
    4 C4         -3.088166E-04   1.789590E-03  -5.457981E-03
    5 C5         -4.649510E-03  -5.030862E-03   7.112896E-03
    6 H6          1.189305E-03   2.392302E-03   1.169702E-03
    7 C7          4.324825E-03   4.836264E-03   6.505894E-03
    8 C8         -3.268133E-03  -4.805557E-04  -3.714251E-03
    9 C9          2.747062E-03   7.929787E-03   7.748391E-04
   10 C10        -2.186803E-03  -8.392993E-03  -2.096397E-03
   11 C11         1.042604E-03   1.508003E-03   4.961157E-03
   12 C12        -4.023946E-03  -7.636643E-03   7.078069E-04
   13 C13         4.671760E-03   1.140471E-03   3.561817E-03
   14 C14        -8.690255E-03  -5.771531E-04  -8.138977E-03
   15 C15        -3.996857E-03   8.053344E-03   2.121240E-02
   16 H16        -1.754699E-03   2.996794E-05  -5.464185E-04
   17 C17         1.424371E-02  -5.918275E-02  -4.472983E-02
   18 H18         1.866413E-02   1.428980E-02  -1.677921E-02
   19 C19        -5.809304E-02   2.179378E-02  -6.434538E-04
   20 C20         3.991603E-03  -1.116402E-02  -2.783512E-03
   21 C21         8.695854E-03  -1.448747E-02   5.473437E-03
   22 O22         1.289795E-03   2.247477E-02  -7.206651E-03
   23 O23         2.680042E-03   8.221190E-03   2.879670E-03
   24 H24         6.832411E-03   8.272462E-03  -5.694803E-03
   25 H25         3.023041E-03   8.147696E-04  -5.320371E-03
   26 H26         3.171677E-03   9.887414E-03   4.858493E-03
   27 H27         2.137832E-03   5.117226E-03   6.021788E-03
   28 H28        -5.500715E-04  -2.179866E-03  -5.237178E-03
   29 H29         6.110113E-03  -6.042280E-03   3.106925E-04
   30 H30        -9.832635E-04  -7.416032E-04   1.813975E-03
   31 H31        -1.636484E-03   4.592945E-05   2.012187E-03
   32 H32         5.709225E-04  -1.571949E-03  -5.563033E-04
   33 H33         4.602174E-04   6.221195E-04  -4.277046E-05
   34 H34        -1.007166E-03  -7.678237E-04  -1.843286E-04
   35 H35        -1.480785E-04  -3.003229E-05   1.105552E-03
   36 H36        -1.158166E-03   2.551590E-03   2.731725E-03
   37 H37        -3.467601E-03   1.928711E-03   1.090769E-03
   38 H38         2.553967E-02  -8.646658E-03   7.031161E-04
   39 H39         4.858811E-04  -9.500760E-03  -4.283552E-03
   40 H40         1.986099E-03   8.423068E-03   1.591701E-03
   41 H41        -2.553916E-03  -7.060193E-03   2.982457E-03
   42 H42        -1.230783E-03  -3.591684E-03  -2.546158E-03
 -------------   -------------  -------------  -------------
     total        9.581738E-05  -3.176511E-04  -5.752996E-04
   
  Peak memory usage:   6742 Mb
  
  end of program der1b
   
 Time(der1b)  user:       50.6  user+sys:       50.6  wallclock:        3.8
  
  start of program geopt
  
 ----------------------------------------------------------------------------
  Geometry optimization step  4
  Total energy:      -849.01457096815 hartrees
 ----------------------------------------------------------------------------
  
  
  Level shifts adjusted to satisfy step-size constraints
   Step size:    0.3001206
   Cos(theta):   0.8687039
   Final level shift:  -3.9831493E-01
  
  energy change:          -5.5746E-02 .  (  5.0000E-05 )
  gradient maximum:        6.4114E-02 .  (  4.5000E-04 )
  gradient rms:            1.5443E-02 .  (  3.0000E-04 )
  displacement maximum:    1.0856E-01 .  (  1.8000E-03 )
  displacement rms:        2.5453E-02 .  (  1.2000E-03 )
  
  predicted energy change:  -4.1672E-02
  step size:     0.30009
  trust radius:  0.30000
  
  molecular structure not yet converged...
  
  center of mass moved by:
     x:    -1.7274E-02     y:     2.2323E-02     z:     7.0934E-03
  
  new geometry: 
                                   angstroms
  atom               x                 y                 z
  C1            0.8395377689      0.9449552883     -0.5134257321 
  C2            2.3887412933      0.5947754903     -0.2020936813 
  C3            3.1599497206      1.0105112764     -1.4475099119 
  C4            2.6746061927      0.2023992316     -2.6611732950 
  C5            2.8521997083     -1.3003163141     -2.3454010946 
  H6            3.9403710976     -1.4539067619     -2.2195394705 
  C7            2.4497958942     -2.2534158464     -3.4655723930 
  C8            2.2947907503     -1.7939974710     -4.8026356614 
  C9            1.8744779580     -2.6412280308     -5.8121827257 
  C10           1.6479064085     -4.0064320192     -5.5112826913 
  C11           1.8645992169     -4.5034816126     -4.2111829914 
  C12           2.2704671786     -3.6532556292     -3.1898917823 
  C13           2.4298273133     -4.2254282327     -1.7904528376 
  C14           2.9676733621     -3.2221378900     -0.7392934127 
  C15           2.2589911652     -1.8620953534     -0.9381810306 
  H16           1.1842728119     -2.0277624777     -1.0787448618 
  C17           2.4303977818     -0.8514846514      0.3809226042 
  H18           3.3970339050     -1.1817039597      0.7878548561 
  C19           1.5611558620     -0.7859780689      1.6150116440 
  C20           1.9872625421      0.5905030393      2.2953178063 
  C21           2.8808079738      1.1547013457      1.1707328346 
  O22           4.0739873435      1.4145881086      1.3712516086 
  O23           1.2201426298     -4.9073908098     -6.4397249092 
  H24           0.5123758628      0.4140521489     -1.4060763251 
  H25           0.6761093664      2.0206050768     -0.5979169327 
  H26           0.1433134305      0.5635751085      0.2289832959 
  H27           4.2297443086      0.7796618695     -1.3449973745 
  H28           3.0614158525      2.0943102767     -1.5651505189 
  H29           3.2642922570      0.5062257955     -3.5344748969 
  H30           1.6465081271      0.4328854480     -2.9482972788 
  H31           2.4972199764     -0.7603211643     -5.0501577507 
  H32           1.7201724065     -2.2570489209     -6.8156033630 
  H33           1.6902472041     -5.5581796095     -4.0300156720 
  H34           3.0988963084     -5.0953150284     -1.8363868393 
  H35           1.4525619605     -4.6111276683     -1.4676344395 
  H36           4.0504573219     -3.0996030264     -0.8744165687 
  H37           2.8206685637     -3.6387270698      0.2617506804 
  H38           1.4606707321     -1.6307850985      2.2995197064 
  H39           0.4983755659     -0.6375676802      1.4101613792 
  H40           2.5960119380      0.4213748700      3.1840725079 
  H41           1.1554433851      1.2654894211      2.5189786221 
  H42           1.0880398446     -4.5093296075     -7.3265500540 
   
  nuclear repulsion energy.......    1573.435460197 hartrees
  -------------------------------------------------
 /  end of geometry optimization iteration   4   /
 -------------------------------------------------
   
  Peak memory usage:   4727 Mb
  
  end of program geopt
   
 Time(geopt)  user:        7.3  user+sys:        7.3  wallclock:        0.6
  
  start of program onee
  
  smallest eigenvalue of S:    5.522E-04
  number of canonical orbitals.....          224
  Peak memory usage:   4838 Mb
  
  end of program onee
   
 Time(onee)  user:        1.9  user+sys:        1.9  wallclock:        0.5
  
  start of program probe
  
  Peak memory usage:   4756 Mb
  
  end of program probe
   
 Time(probe)  user:        2.6  user+sys:        2.6  wallclock:        0.5
  
  start of program grid
  
   grid     grid set  grid #  grid sym
  ------    --------  ------  --------
  coarse        0        0        1
  medium        2        1        1
  fine          0        0        1
  ultrafine     4        2        1
  charge       -1        3        1
  gradient      4        2        1
  density       0        0        1
  DFT-fine    -11        4        1
  DFT-med.    -10        5        1
  DFT-grad    -12        6        1
  DFT-der2      0        0        1
  DFT-cphf      0        0        1
  LMP2-enrg     4        2        1
  LMP2-grad     2        1        1
  DFT-cphf2     0        0        1
  PBF-dens      0        0        1
  plotting      0        0        1
  Rel-grad    -17        0        1
  
  number of gridpoints: 
     atom        C1       C2       C3       C4       C5       H6       C7
  grid # 1       77       99       84       87       90      105       98
  grid # 2      268      350      287      292      324      418      360
  grid # 3        6        6        6        6        6      506      106
  grid # 4     4304     4304     4304     4304     4304     4304     4304
  grid # 5     1192     1192     1192     1192     1192     1192     1192
  grid # 6     5226     5226     5226     5226     5226     5226     5226
   
  number of gridpoints: 
     atom        C8       C9      C10      C11      C12      C13      C14
  grid # 1       97       97       99       97       99       86       86
  grid # 2      338      339      357      337      365      289      292
  grid # 3      197      228      245      209      127        6        6
  grid # 4     4304     4304     4304     4304     4304     4304     4304
  grid # 5     1192     1192     1192     1192     1192     1192     1192
  grid # 6     5226     5226     5226     5226     5226     5226     5226
   
  number of gridpoints: 
     atom       C15      H16      C17      H18      C19      C20      C21
  grid # 1       94      108       93      106       87       82      100
  grid # 2      326      426      320      419      297      293      368
  grid # 3        6      498        6      480        6        6      111
  grid # 4     4304     4304     4304     4304     4304     4304     4304
  grid # 5     1192     1192     1192     1192     1192     1192     1192
  grid # 6     5226     5226     5226     5226     5226     5226     5226
   
  number of gridpoints: 
     atom       O22      O23      H24      H25      H26      H27      H28
  grid # 1      122      114      103      110      101      109      110
  grid # 2      503      427      408      440      407      428      437
  grid # 3     1166      784      473      966      487      672      854
  grid # 4     4304     4304     4304     4304     4304     4304     4304
  grid # 5     1192     1192     1192     1192     1192     1192     1192
  grid # 6     5226     5226     5226     5226     5226     5226     5226
   
  number of gridpoints: 
     atom       H29      H30      H31      H32      H33      H34      H35
  grid # 1      107      105      109      118      115      109      109
[...]
  H40           3.6086142385      0.2259171500      2.7536799370 
  H41           1.9326983954      0.6627072484      3.0568948540 
  H42           1.8979882311     -4.7273323061     -7.4385937464 
   
  nuclear repulsion energy.......    1573.238913025 hartrees
  -------------------------------------------------
 /  end of geometry optimization iteration  19   /
 -------------------------------------------------
   
  Peak memory usage:   4727 Mb
  
  end of program geopt
   
 Time(geopt)  user:        7.3  user+sys:        7.3  wallclock:        0.6
  
  start of program onee
  
  smallest eigenvalue of S:    5.440E-04
  number of canonical orbitals.....          224
  Peak memory usage:   4838 Mb
  
  end of program onee
   
 Time(onee)  user:        2.1  user+sys:        2.1  wallclock:        0.5
  
  start of program probe
  
  Peak memory usage:   4756 Mb
  
  end of program probe
   
 Time(probe)  user:        1.9  user+sys:        1.9  wallclock:        0.5
  
  start of program grid
  
   grid     grid set  grid #  grid sym
  ------    --------  ------  --------
  coarse        0        0        1
  medium        2        1        1
  fine          0        0        1
  ultrafine     4        2        1
  charge       -1        3        1
  gradient      4        2        1
  density       0        0        1
  DFT-fine    -11        4        1
  DFT-med.    -10        5        1
  DFT-grad    -12        6        1
  DFT-der2      0        0        1
  DFT-cphf      0        0        1
  LMP2-enrg     4        2        1
  LMP2-grad     2        1        1
  DFT-cphf2     0        0        1
  PBF-dens      0        0        1
  plotting      0        0        1
  Rel-grad    -17        0        1
  
  number of gridpoints: 
     atom        C1       C2       C3       C4       C5       H6       C7
  grid # 1       78       96       86       86       91      105       98
  grid # 2      269      341      291      293      320      423      362
  grid # 3        6        6        6        6        6      563      104
  grid # 4     4304     4304     4304     4304     4304     4304     4304
  grid # 5     1192     1192     1192     1192     1192     1192     1192
  grid # 6     5226     5226     5226     5226     5226     5226     5226
   
  number of gridpoints: 
     atom        C8       C9      C10      C11      C12      C13      C14
  grid # 1       97       97       99       95       99       86       86
  grid # 2      339      339      356      338      365      291      291
  grid # 3      190      229      249      212      133        6        6
  grid # 4     4304     4304     4304     4304     4304     4304     4304
  grid # 5     1192     1192     1192     1192     1192     1192     1192
  grid # 6     5226     5226     5226     5226     5226     5226     5226
   
  number of gridpoints: 
     atom       C15      H16      C17      H18      C19      C20      C21
  grid # 1       90      106       93      105       86       86       95
  grid # 2      318      414      323      415      294      290      364
  grid # 3        6      357        6      424        6        6       29
  grid # 4     4304     4304     4304     4304     4304     4304     4304
  grid # 5     1192     1192     1192     1192     1192     1192     1192
  grid # 6     5226     5226     5226     5226     5226     5226     5226
   
  number of gridpoints: 
     atom       O22      O23      H24      H25      H26      H27      H28
  grid # 1      123      114      106      109      107      108      110
  grid # 2      509      425      418      435      424      428      433
  grid # 3     1252      763      557      910      683      733      786
  grid # 4     4304     4304     4304     4304     4304     4304     4304
  grid # 5     1192     1192     1192     1192     1192     1192     1192
  grid # 6     5226     5226     5226     5226     5226     5226     5226
   
  number of gridpoints: 
     atom       H29      H30      H31      H32      H33      H34      H35
  grid # 1      105      105      109      118      115      109      109
  grid # 2      419      422      428      444      442      433      436
  grid # 3      599      585      750     1163     1053      875      871
  grid # 4     4304     4304     4304     4304     4304     4304     4304
  grid # 5     1192     1192     1192     1192     1192     1192     1192
  grid # 6     5226     5226     5226     5226     5226     5226     5226
   
  number of gridpoints: 
     atom       H36      H37      H38      H39      H40      H41      H42
  grid # 1      109      107      110      108      111      111      114
  grid # 2      429      427      433      428      443      442      450
  grid # 3      738      641      790      627      993     1034     1339
  grid # 4     4304     4304     4304     4304     4304     4304     4304
  grid # 5     1192     1192     1192     1192     1192     1192     1192
  grid # 6     5226     5226     5226     5226     5226     5226     5226
   
  number of gridpoints: 
     atom     total
  grid # 1     4277
  grid # 2    16184
  grid # 3    20298
  grid # 4   180768
  grid # 5    50064
  grid # 6   219492
   
  Peak memory usage:   4788 Mb
  
  end of program grid
   
 Time(grid)  user:       23.7  user+sys:       23.7  wallclock:        2.3
  
  start of program rwr
  
  Peak memory usage:   4745 Mb
  
  end of program rwr
   
 Time(rwr)  user:       52.9  user+sys:       52.9  wallclock:        5.1
  
  start of program scf
  
 Energy computed with NOPS off.
  
       i  u  d  i  g                   
       t  p  i  c  r                                 RMS    maximum
       e  d  i  u  i                       energy  density   DIIS  
       r  t  s  t  d       total energy    change  change    error 
  
etot    1  N  N  2  U    -849.12421367807           1.6E-05  1.7E-04
etot    2  N  Y  2  U    -849.12421978731  6.1E-06  2.9E-05  8.9E-05
etot    3  N  Y  2  U    -849.12421147683 -8.3E-06  2.5E-05  9.4E-04
etot    4  N  Y  2  U    -849.12421984859  8.4E-06  2.2E-06  4.0E-05
etot    5  N  N  2  U    -849.12421991824  7.0E-08  0.0E+00  0.0E+00
  
  
 Energy components, in hartrees:
   (A)  Nuclear repulsion............    1573.23891302490
   (E)  Total one-electron terms.....   -4255.91461619948
   (I)  Total two-electron terms.....    1833.55148325634
   (L)  Electronic energy............   -2422.36313294314  (E+I)
   (N)  Total energy.................    -849.12421991824  (A+L)
   (O)  Gas phase energy.............    -849.12421991824
  
                                 Total             Coulomb       Exchange+Corr.
 Total two-electron terms    1833.55148325634    1956.39467347240    -122.84319021606
   Hamiltonian  1........     940.64667873581     984.42834429579     -43.78166555998
   Hamiltonian  2........     928.62798895186     971.96632917661     -43.33834022475
  
 SCFE: SCF energy: UDFT(b3lyp)      -849.12421991824 hartrees   iterations:   5
  
 
 Alpha HOMO energy:    -0.37106
 Alpha LUMO energy:    -0.16959
 
  Alpha Orbital energies (hartrees): 
   -19.36072   -19.28587   -10.44002   -10.40252   -10.37919   -10.36391
   -10.36224   -10.35475   -10.34681   -10.33822   -10.32641   -10.31984
   -10.31938   -10.31219   -10.31153   -10.30820   -10.30576   -10.30006
   -10.29881   -10.29179    -1.25380    -1.18945    -1.03454    -0.99366
    -0.95853    -0.94013    -0.90913    -0.90075    -0.87781    -0.84796
    -0.82097    -0.78961    -0.78470    -0.77378    -0.76314    -0.72810
    -0.71573    -0.69009    -0.68095    -0.64934    -0.63461    -0.63260
    -0.60628    -0.60159    -0.59453    -0.58819    -0.58444    -0.58125
    -0.56567    -0.56447    -0.55799    -0.55162    -0.54053    -0.53021
    -0.52370    -0.51854    -0.51031    -0.50677    -0.50608    -0.50079
    -0.49156    -0.47733    -0.47275    -0.46811    -0.46429    -0.46053
    -0.45072    -0.44418    -0.43531    -0.41672    -0.40998    -0.38882
    -0.37106    -0.16959    -0.16343    -0.14697    -0.08511    -0.04577
    -0.03661    -0.02886    -0.02386    -0.02128    -0.00558
 
 
 Beta HOMO energy:    -0.34304
 Beta LUMO energy:    -0.32798
 
  Beta Orbital energies (hartrees): 
   -19.35654   -19.28126   -10.43755   -10.40273   -10.37476   -10.36390
   -10.36078   -10.35504   -10.34629   -10.33822   -10.32563   -10.31962
   -10.31937   -10.31213   -10.31133   -10.30759   -10.30576   -10.30004
   -10.29885   -10.29180    -1.24490    -1.18096    -1.02875    -0.99182
    -0.95512    -0.93804    -0.90776    -0.89486    -0.87608    -0.84642
    -0.81943    -0.78672    -0.78297    -0.77155    -0.76107    -0.72636
    -0.71398    -0.68771    -0.67924    -0.64689    -0.63197    -0.63074
    -0.60442    -0.59929    -0.59109    -0.58271    -0.57858    -0.57194
    -0.56410    -0.56126    -0.55342    -0.54878    -0.53753    -0.52734
    -0.52036    -0.51640    -0.50724    -0.50353    -0.50139    -0.49853
    -0.49020    -0.47176    -0.46963    -0.46501    -0.45987    -0.45735
    -0.44848    -0.44249    -0.43417    -0.41533    -0.40560    -0.34304
    -0.32798    -0.15507    -0.14639    -0.14519    -0.08352    -0.04418
    -0.03405    -0.02845    -0.02284    -0.01636
 
  
  
    Unrestricted Spin Properties ...
    Sz*(Sz+1)      0.750
    <S**2> ...     0.757
  
  
  Peak memory usage:   6748 Mb
  
  end of program scf
   
 Time(scf)  user:      124.5  user+sys:      124.5  wallclock:        8.9
  
  start of program der1a
  
  Peak memory usage:   4838 Mb
  
  end of program der1a
   
 Time(der1a)  user:        2.6  user+sys:        2.6  wallclock:        0.5
  
  start of program rwr
  
  Peak memory usage:   4745 Mb
  
  end of program rwr
   
 Time(rwr)  user:       42.2  user+sys:       42.2  wallclock:        5.2
  
  start of program der1b
  
   
  forces (hartrees/bohr) : total     
   
 atom  label           x              y              z
 ---- --------   -------------  -------------  -------------
    1 C1         -4.693156E-05   5.857213E-06   4.958514E-05
    2 C2          9.794222E-05  -2.248980E-05   2.667937E-05
    3 C3         -6.240822E-06   2.972831E-06   5.838521E-06
    4 C4          3.909057E-05  -2.161740E-05  -1.146536E-05
    5 C5          3.132957E-05   1.944838E-05   1.332267E-05
    6 H6         -8.804434E-06   3.534140E-06   2.473845E-06
    7 C7         -1.827311E-05   9.782734E-06  -3.541890E-06
    8 C8         -2.007972E-05   1.718570E-05   2.744141E-05
    9 C9          1.222514E-05  -3.815621E-05  -6.005061E-06
   10 C10         8.888714E-07   2.661274E-05  -2.541502E-05
   11 C11        -1.142885E-06   8.877431E-06   7.728217E-06
   12 C12         2.079865E-05  -8.978570E-06   2.603006E-06
   13 C13        -3.589907E-07   7.398039E-06  -1.876059E-05
   14 C14        -5.184677E-06  -1.397740E-06   3.210305E-05
   15 C15        -2.136295E-05   6.307977E-05  -9.704522E-06
   16 H16         1.422356E-05  -3.126825E-06   1.334236E-05
   17 C17         3.242917E-05  -7.685027E-06  -4.675341E-05
   18 H18        -7.502939E-07   3.032655E-06   1.098062E-06
   19 C19        -4.691124E-05   2.034057E-05   5.888798E-05
   20 C20        -6.699926E-06  -7.196582E-06  -3.559960E-05
   21 C21        -1.259357E-05   3.200987E-05  -2.390254E-05
   22 O22        -2.390456E-06  -1.984164E-05   1.504587E-05
   23 O23        -4.381609E-06   1.431741E-06   3.232218E-06
   24 H24         9.942669E-06   1.763589E-05   3.309704E-05
   25 H25         2.481908E-05  -1.753400E-05   2.663715E-05
   26 H26         7.649873E-06   1.455980E-05   1.351827E-05
   27 H27         8.034555E-06   8.127742E-07  -1.443076E-05
   28 H28         2.177424E-05  -2.008487E-06  -1.037137E-06
   29 H29         8.486923E-06  -7.113753E-06   1.736951E-06
   30 H30         5.665032E-06   8.246465E-06  -7.430701E-06
   31 H31         1.401095E-05   2.757495E-06   7.933850E-06
   32 H32        -1.254911E-06  -2.333008E-06  -6.618656E-06
   33 H33        -1.012284E-05  -1.845925E-06   1.150296E-06
   34 H34        -1.369461E-05   9.156463E-06  -2.784198E-06
   35 H35        -1.936896E-05   1.292033E-05   5.456130E-06
   36 H36        -9.059386E-06   5.442381E-06   6.144665E-06
   37 H37        -1.986948E-06   2.024581E-07  -8.040766E-06
   38 H38        -6.346723E-06   7.011628E-06  -4.968439E-06
   39 H39         7.443987E-06   1.488750E-05  -7.950597E-06
   40 H40        -1.145192E-05   8.087103E-06   1.153154E-06
   41 H41         7.990487E-06   2.040010E-05   4.166877E-06
   42 H42        -8.985902E-07   4.236668E-06   1.295721E-05
 -------------   -------------  -------------  -------------
     total        8.845441E-05   1.865959E-04   1.389240E-04
   
  Peak memory usage:   6742 Mb
  
  end of program der1b
   
 Time(der1b)  user:       51.6  user+sys:       51.6  wallclock:        3.7
  
  start of program geopt
  
 ----------------------------------------------------------------------------
  Geometry optimization step 20
  Total energy:      -849.12421991824 hartrees
 ----------------------------------------------------------------------------
  
  energy change:          -1.2901E-05 *  (  5.0000E-05 )
  gradient maximum:        3.9414E-04 *  (  4.5000E-04 )
  gradient rms:            5.4009E-05 #  (  3.0000E-04 )
  displacement maximum:    1.1022E-03 *  (  1.8000E-03 )
  displacement rms:        2.9203E-04 *  (  1.2000E-03 )
  
  predicted energy change:  -3.0620E-07
  step size:     0.00344
  trust radius:  0.30000
  
  ********************************************************
  **           Geometry optimization complete           **
  ********************************************************
  
  Checking the geometry optimization convergence pattern ...
  
  best                    worst
  ==0=====1=====2=====3=====4==
          ^                    
  
  Convergence category 1: non-monotonic convergence to an optimal structure.
  Geometry optimization was OK.
  
  Number of imaginary frequencies:   0
  
  center of mass moved by:
     x:     0.0000E+00     y:     0.0000E+00     z:     0.0000E+00
  
  final geometry: 
                                   angstroms
  atom               x                 y                 z
  C1            0.7248481362      0.9044110017     -0.2586319198 
  C2            2.2538175310      0.6222969855     -0.1698871902 
  C3            2.9770589779      1.0636308620     -1.4526668840 
  C4            2.6083471820      0.1249986987     -2.6274314932 
  C5            2.8007379251     -1.3863220743     -2.2911241984 
  H6            3.8889284002     -1.5224413668     -2.1151769211 
  C7            2.4703455477     -2.3344091679     -3.4273463284 
  C8            2.6336645200     -1.9273299244     -4.7863106298 
  C9            2.4124366560     -2.7907582095     -5.8379679059 
  C10           2.0089825535     -4.1252725065     -5.5539417679 
  C11           1.8331827934     -4.5566926478     -4.2210360528 
  C12           2.0515124089     -3.6915670189     -3.1604679785 
  C13           1.8062339084     -4.1812822113     -1.7469859018 
  C14           2.4389893031     -3.2943343565     -0.6660530764 
  C15           2.1258927448     -1.8131244313     -0.9401851582 
  H16           1.0354542946     -1.7080711036     -1.0445967191 
  C17           2.6171488433     -0.8601548159      0.1542197084 
  H18           3.7209904502     -0.9102829337      0.1474090717 
  C19           2.1879067974     -1.0448347276      1.6300636203 
  C20           2.6178076312      0.2934107434      2.2864345296 
  C21           2.7091562844      1.3063164840      1.1327520068 
  O22           3.0782869415      2.4777737206      1.2247107064 
  O23           1.7711875103     -5.0426460132     -6.5188791128 
  H24           0.2736374020      0.3943389768     -1.1145398284 
  H25           0.5610572203      1.9795825197     -0.3847126777 
  H26           0.1858509841      0.5853498831      0.6384394420 
  H27           4.0621478516      1.0398848025     -1.2855470500 
  H28           2.7222435668      2.0971307007     -1.7109346834 
  H29           3.2340725388      0.4006559363     -3.4828239583 
  H30           1.5680974430      0.2959480400     -2.9311719404 
  H31           2.9444337740     -0.9148671899     -5.0046399016 
  H32           2.5447365743     -2.4630278899     -6.8640764977 
  H33           1.5214251913     -5.5815193152     -4.0558295725 
  H34           2.1576695807     -5.2157479079     -1.6546593589 
  H35           0.7170772815     -4.2209645987     -1.5875601296 
  H36           3.5278400967     -3.4419557614     -0.6378209772 
  H37           2.0538761011     -3.5929993332      0.3146286841 
  H38           2.6788069483     -1.8996827558      2.1037397338 
  H39           1.1064318319     -1.1989279714      1.7160536520 
  H40           3.6086142385      0.2259171500      2.7536799370 
  H41           1.9326983954      0.6627072484      3.0568948540 
  H42           1.8979882311     -4.7273323061     -7.4385937464 
   
  principal moments of inertia:
        amu*angstrom^2:      549.03715     2841.88980     3219.41091
                g*cm^2: 9.11697528E-38 4.71906845E-37 5.34595693E-37
   
  rotational constants:
               cm^(-1):      0.03070399      0.00593184      0.00523625
                   GHz:      0.92048235      0.17783202      0.15697872
   
  nuclear repulsion energy.......    1573.238913025 hartrees
  -------------------------------------------------
 /  end of geometry optimization iteration  20   /
 -------------------------------------------------
   
  Peak memory usage:   4821 Mb
  
  end of program geopt
   
 Time(geopt)  user:       12.0  user+sys:       12.0  wallclock:        1.0
  
  start of program ch
  
  Moments from quantum mechanical wavefunction:
  Dipole Moments  (Debye)
     X=    -0.6537     Y=    -4.7279     Z=    -6.0220  Tot=     7.6840
  
  gridpoints used for charge fit        19218
    out of a possible maximum of        20298
  
   Electrostatic potential fitting constrained to reproduce
     total charge:                yes
     dipole moment:               yes
     traceless quadrupole moment: no 
     traceless octapole moment:   no 
  
  Atomic charges from electrostatic potential: 
   
 Atom       C1           C2           C3           C4           C5      
 Charge   -0.43131      0.15334     -0.16497      0.00533     -0.05121
   
 Atom       H6           C7           C8           C9           C10     
 Charge    0.08312      0.05460     -0.09646     -0.33169      0.62138
   
 Atom       C11          C12          C13          C14          C15     
 Charge   -0.35859      0.13471     -0.14190     -0.08303      0.13650
   
 Atom       H16          C17          H18          C19          C20     
 Charge    0.02195     -0.18858      0.05737     -0.03991     -0.30863
   
 Atom       C21          O22          O23          H24          H25     
 Charge    0.59111     -0.43316     -0.58889      0.13374      0.14326
   
 Atom       H26          H27          H28          H29          H30     
 Charge    0.12423      0.05624      0.08186      0.03993      0.02200
   
 Atom       H31          H32          H33          H34          H35     
 Charge    0.16713      0.19360      0.20940      0.10191      0.08806
   
 Atom       H36          H37          H38          H39          H40     
 Charge    0.04825      0.05240      0.07116      0.05143      0.13726
   
 Atom       H41          H42     
 Charge    0.13932      0.49775
  
  sum of atomic charges:     1.000000
   
 RMS Error   5.75E-04 hartrees
 
  
  Moments from electrostatic potential charges:
  Dipole Moments  (Debye)
     X=    -0.6537     Y=    -4.7279     Z=    -6.0220  Tot=     7.6840
  
  Peak memory usage:   4833 Mb
  
  end of program ch
   
 Time(ch)  user:        6.8  user+sys:        6.8  wallclock:        3.2

 Total cpu seconds     user:    7412.473   user+sys:    7412.473
  
 Total elapsed time:    685 seconds

Job Estrone_1 completed on n048 at Sun Jan  8 22:35:56 2017
