Job ethynylestradiol_1 started on n050 at Sun Jan  8 22:24:41 2017
jobid: u01-0-5873026e

  +--------------------------------------------------------------------+
  |  Jaguar version 9.3, release  15                                   |
  |                                                                    |
  |  Copyright Schrodinger, Inc.                                       |
  |  All Rights Reserved.                                              |
  |                                                                    |
  |  The following have contributed to Jaguar (listed alphabetically): |
  |  Mike Beachy, Art Bochevarov, Dale Braden, Yixiang Cao,            |
  |  Chris Cortis, Rich Friesner, Bill Goddard, Hod Greeley,           |
  |  Tom Hughes, Leif Jacobson, Jean-Marc Langlois,                    |
  |  Daniel Mainz, Rob Murphy, Dean Philipp,                           |
  |  Tom Pollard, Murco Ringnalda, Mark Watson.                        |
  |                                                                    |
  |  Use of this program should be acknowledged in publications as:    |
  |                                                                    |
  |  Jaguar, version 9.3, Schrodinger, Inc., New York, NY, 2016.       |
  |                                                                    |
  |  A. D. Bochevarov, E. Harder, T. F. Hughes, J. R. Greenwood,       |
  |  D. A. Braden, D. M. Philipp, D. Rinaldo, M. D. Halls,             |
  |  J. Zhang, R. A. Friesner, "Jaguar: A High-Performance Quantum     |
  |  Chemistry Software Program with Strengths in Life and Materials   |
  |  Sciences", Int. J. Quantum Chem., 2013, 113(18), 2110-2142.       |
  +--------------------------------------------------------------------+
  
  start of program pre
  
  Job name: ethynylestradiol_1
  Executables used: /home/applications/Schrodinger_Suites_2016-3/jaguar-v9.3/bin/Linux-x86_64
  Temporary files : /scratch/Schrodinger_Suites/pbeni001/ethynylestradiol_1#u01-0-5873026e
  Maestro file (input):  ethynylestradiol_1.mae
  Maestro file (output): ethynylestradiol_1.01.mae
  
  basis set:             6-31g                           
  net molecular charge:    1
  multiplicity:            2
  
  Using up to  16 threads per process
  
  number of basis functions....          246
  
 Input geometry:
                                   angstroms
  atom               x                 y                 z
  C1            0.9557023000     -0.0241983000     -0.0129822000 
  C2            2.3990458000      0.4238258000     -0.1887248000 
  C3            2.7300697000     -0.0763860000     -1.6562122000 
  C4            4.6418043000     -0.6124002000     -1.9357968000 
  C5            4.8155965000      0.0681572000     -3.1577900000 
  C6            3.7172060000     -0.2960003000     -4.1110249000 
  C7            3.3575138000     -1.6381026000     -4.2636226000 
  C8            2.2298178000     -1.9753896000     -4.9945284000 
  C9            1.4818632000     -0.9678010000     -5.6002157000 
  C10           1.8116869000      0.3730982000     -5.4450417000 
  C11           2.9148232000      0.7143468000     -4.6627275000 
  C12           3.1998243000      2.1402613000     -4.3202712000 
  C13           3.7858696000      2.3189352000     -2.8691633000 
  C14           4.4530537000      1.0768172000     -1.9505442000 
  C15           3.7244661000     -0.0656789000     -0.3434832000 
  C16           4.4088323000     -0.4799638000      1.0146547000 
  C17           4.4787736000      0.9321638000      1.3703914000 
  C18           3.0063557000      1.3701215000      0.9185815000 
  C19           3.0261741000      2.7242300000      0.3556610000 
  C20           3.0016796000      3.7305804000     -0.2250803000 
  O21           2.1869994000      1.3598950000      2.0843131000 
  O22           0.3893906000     -1.2612910000     -6.3597699000 
  H23           0.6468008000     -0.8844230000     -0.6259381000 
  H24           0.3564610000      0.8179158000     -0.3918767000 
  H25           0.6191521000     -0.2317418000      1.0041302000 
  H26           2.3111467000      0.7878655000     -2.2024000000 
  H27           2.1845846000     -0.9424898000     -2.0291872000 
  H28           5.0043568000     -1.5847928000     -1.6267769000 
  H29           5.5098994000     -0.0864670000     -1.0956058000 
  H30           5.7987880000     -0.3202661000     -3.4530712000 
  H31           3.9090949000     -2.3962437000     -3.7117496000 
  H32           1.9606240000     -3.0218011000     -5.0613483000 
  H33           1.1929754000      1.1434556000     -5.8994217000 
  H34           2.2712668000      2.7381157000     -4.3501235000 
  H35           3.8091805000      2.5729352000     -5.1336512000 
  H36           2.9910462000      2.7514449000     -2.2946230000 
  H37           4.5340243000      3.1255610000     -2.9832972000 
  H38           5.4610791000      1.5165982000     -1.8401715000 
  H39           3.4950652000     -1.2459553000     -0.4820349000 
  H40           5.2890907000     -1.1359473000      0.8933133000 
  H41           3.8129363000     -1.0235133000      1.7903838000 
  H42           5.3126053000      1.2774275000      0.7506574000 
  H43           4.7320781000      1.1148866000      2.4116201000 
  H44           2.9682343000      4.5739284000     -0.9027697000 
  H45           2.2038455000      0.4592132000      2.4508221000 
  H46           0.2973492000     -2.2265401000     -6.3921754000 
   
  principal moments of inertia:
        amu*angstrom^2:      891.38766     2603.16169     2674.37974
                g*cm^2: 1.48018386E-37 4.32265115E-37 4.44091148E-37
   
  rotational constants:
               cm^(-1):      0.01891167      0.00647583      0.00630338
                   GHz:      0.56695760      0.19414046      0.18897055
   
  Molecular weight:     296.18 amu
   
  Stoichiometry: C20H24O2
  Molecular Point Group: C1      
  Point Group used: C1
  
  detected            2  molecular fragments
 
Number of optimization coordinates:   174
Number of independent coordinates:    174
Number of non-redundant coordinates:  132
Number of frozen coordinates:           0
Number of harmonic constraints:         0
 
Number of geometric degrees of freedom:   132
Maximum geometric degrees of freedom:     132
 " " " " " excluding dummy atoms:         132
 
  nuclear repulsion energy.......    1914.885862066 hartrees
 
 Non-default options chosen:
   SCF calculation type: UDFT(b3lyp)                 
   UDFT=Becke_3_Parameter/HF+Slater+Becke88+VWN+LYP (B3LYP)
   Geometry will be optimized in redundant internal coordinates
   Electrostatic potential fit to point charges on atomic centers
   Electrostatic potential fitting constrained to reproduce
     total charge:                yes
     dipole moment:               yes
     traceless quadrupole moment: no 
     traceless octapole moment:   no 
  
 Temporary integer options set:
     73=  2
  
  Peak memory usage:   4804 Mb
  
  end of program pre
   
 Time(pre)  user:        6.1  user+sys:        6.1  wallclock:        0.9
  
  start of program onee
  
  smallest eigenvalue of S:    3.880E-04
  number of canonical orbitals.....          245
  Peak memory usage:   4838 Mb
  
  end of program onee
   
 Time(onee)  user:        2.4  user+sys:        2.4  wallclock:        0.5
  
  start of program hfig
  
  initial wavefunction generated automatically from atomic wavefunctions
  
  -------------------
  Alpha orbital space
  -------------------
 
  Irreducible     Total no   No of occupied orbitals 
  representation  orbitals   Shell_1  Shell_2    ...
  No Symm          245         80
  ------------------------
  Orbital occupation/shell    1.000
 
  ------------------
  Beta orbital space
  ------------------
 
  Irreducible     Total no   No of occupied orbitals 
  representation  orbitals   Shell_1  Shell_2    ...
  No Symm          245         79
  ------------------------
  Orbital occupation/shell    1.000
 
  
  
    Unrestricted Spin Properties ...
    Sz*(Sz+1) ..............     0.750
    <S**2> of initial guess      0.750
  
  
  Peak memory usage:   4756 Mb
  
  end of program hfig
   
 Time(hfig)  user:        4.9  user+sys:        4.9  wallclock:        0.7
  
  start of program probe
  
  Peak memory usage:   4756 Mb
  
  end of program probe
   
 Time(probe)  user:        2.4  user+sys:        2.4  wallclock:        0.5
  
  start of program grid
  
   grid     grid set  grid #  grid sym
  ------    --------  ------  --------
  coarse        0        0        1
  medium        2        1        1
  fine          0        0        1
  ultrafine     4        2        1
  charge       -1        3        1
  gradient      4        2        1
  density       0        0        1
  DFT-fine    -11        4        1
  DFT-med.    -10        5        1
  DFT-grad    -12        6        1
  DFT-der2      0        0        1
  DFT-cphf      0        0        1
  LMP2-enrg     4        2        1
  LMP2-grad     2        1        1
  DFT-cphf2     0        0        1
  PBF-dens      0        0        1
  plotting      0        0        1
  Rel-grad    -17        0        1
  
  number of gridpoints: 
     atom        C1       C2       C3       C4       C5       C6       C7
  grid # 1       79       94       85       88       94      101       95
  grid # 2      268      347      290      299      318      359      333
  grid # 3        6        6        6        6       20      112      134
  grid # 4     4304     4304     4304     4304     4304     4304     4304
  grid # 5     1192     1192     1192     1192     1192     1192     1192
  grid # 6     5226     5226     5226     5226     5226     5226     5226
   
  number of gridpoints: 
     atom        C8       C9      C10      C11      C12      C13      C14
  grid # 1       96       98       96       98       88       87       92
  grid # 2      332      357      332      357      293      298      335
  grid # 3      154      203      182       71        6        6        6
  grid # 4     4304     4304     4304     4304     4304     4304     4304
  grid # 5     1192     1192     1192     1192     1192     1192     1192
  grid # 6     5226     5226     5226     5226     5226     5226     5226
   
  number of gridpoints: 
     atom       C15      C16      C17      C18      C19      C20      O21
  grid # 1       88       84       82       98      103       99      112
  grid # 2      315      285      284      335      395      374      426
  grid # 3        6        6        6        6      238      486      617
  grid # 4     4304     4304     4304     4304     4304     4304     4304
  grid # 5     1192     1192     1192     1192     1192     1192     1192
  grid # 6     5226     5226     5226     5226     5226     5226     5226
   
  number of gridpoints: 
     atom       O22      H23      H24      H25      H26      H27      H28
  grid # 1      114      106      107      107      101       99      106
  grid # 2      426      425      436      428      393      405      414
  grid # 3      826      819      928      818      167      296      551
  grid # 4     4304     4304     4304     4304     4304     4304     4304
  grid # 5     1192     1192     1192     1192     1192     1192     1192
  grid # 6     5226     5226     5226     5226     5226     5226     5226
   
  number of gridpoints: 
     atom       H29      H30      H31      H32      H33      H34      H35
  grid # 1       97      112      113      116      116      108      110
  grid # 2      401      438      434      440      441      429      443
  grid # 3      275      987      807     1088     1069      735     1036
  grid # 4     4304     4304     4304     4304     4304     4304     4304
  grid # 5     1192     1192     1192     1192     1192     1192     1192
  grid # 6     5226     5226     5226     5226     5226     5226     5226
   
  number of gridpoints: 
     atom       H36      H37      H38      H39      H40      H41      H42
  grid # 1      100      107      106       96      110      108      105
  grid # 2      394      430      411      408      427      430      422
  grid # 3      186      754      523      329      839      722      574
  grid # 4     4304     4304     4304     4304     4304     4304     4304
  grid # 5     1192     1192     1192     1192     1192     1192     1192
  grid # 6     5226     5226     5226     5226     5226     5226     5226
   
  number of gridpoints: 
     atom       H43      H44      H45      H46    total
  grid # 1      112      117      107      113     4650
  grid # 2      444      450      422      443    17566
  grid # 3     1034     1328      674     1245    20893
  grid # 4     4304     4304     4304     4304   197984
  grid # 5     1192     1192     1192     1192    54832
  grid # 6     5226     5226     5226     5226   240396
   
  Peak memory usage:   4790 Mb
  
  end of program grid
   
 Time(grid)  user:       34.7  user+sys:       34.7  wallclock:        3.2
  
  start of program rwr
  
  Peak memory usage:   4745 Mb
  
  end of program rwr
   
 Time(rwr)  user:       58.3  user+sys:       58.3  wallclock:        5.9
  
  start of program scf
  
 number of electrons..........        159
 number of alpha electrons....         80
 number of beta electrons.....         79
 number of alpha orbitals.....        245
 number of beta orbitals......        245
 number of alpha occupied orb..        80
 number of alpha virtual orb...       165
 number of beta occupied orb...        79
 number of beta virtual orb....       166
 SCF type: UDFT=Becke_3_Parameter/HF+Slater+Becke88+VWN+LYP (B3LYP)
 Energy computed with NOPS off.
  
       i  u  d  i  g                   
       t  p  i  c  r                                 RMS    maximum
       e  d  i  u  i                       energy  density   DIIS  
       r  t  s  t  d       total energy    change  change    error 
  
etot    1  N  N  5  M    -922.42694022494           2.1E-02  1.3E-01
etot    2  Y  Y  6  M    -909.62810486490 -1.3E+01  2.1E-02  4.3E-01
etot    3  Y  Y  6  M    -923.33194466776  1.4E+01  1.3E-02  1.3E-01
etot    4  N  Y  2  U    -925.01382232171  1.7E+00  1.2E-02  8.0E-02
etot    5  Y  Y  6  M    -925.24029426639  2.3E-01  6.4E-03  5.0E-02
etot    6  N  Y  2  U    -925.61836537814  3.8E-01  1.7E-03  1.1E-02
etot    7  Y  Y  6  M    -925.62782102909  9.5E-03  8.5E-04  8.9E-03
etot    8  N  Y  2  U    -925.63785597548  1.0E-02  2.7E-04  2.8E-03
etot    9  Y  Y  6  M    -925.63859171810  7.4E-04  1.7E-04  1.6E-03
etot   10  Y  Y  6  M    -925.63887538837  2.8E-04  1.1E-04  8.5E-04
etot   11  Y  Y  6  M    -925.63896549940  9.0E-05  6.7E-05  4.0E-04
etot   12  N  Y  2  U    -925.63894364681 -2.2E-05  3.9E-05  2.2E-04
etot   13  N  Y  2  U    -925.63895339115  9.7E-06  2.7E-05  1.5E-04
etot   14  N  Y  2  U    -925.63895631004  2.9E-06  1.4E-05  6.2E-05
etot   15  N  Y  2  U    -925.63895732092  1.0E-06  5.8E-06  2.7E-05
etot   16  N  Y  2  U    -925.63895755205  2.3E-07  3.1E-06  2.0E-05
etot   17  N  N  2  U    -925.63895760051  4.8E-08  0.0E+00  0.0E+00
  
  
 Energy components, in hartrees:
   (A)  Nuclear repulsion............    1914.88586206633
   (E)  Total one-electron terms.....   -5037.37289277568
   (I)  Total two-electron terms.....    2196.84807310884
   (L)  Electronic energy............   -2840.52481966684  (E+I)
   (N)  Total energy.................    -925.63895760051  (A+L)
   (O)  Gas phase energy.............    -925.63895760051
  
                                 Total             Coulomb       Exchange+Corr.
 Total two-electron terms    2196.84807310884    2331.34160893159    -134.49353582275
   Hamiltonian  1........    1125.06833633509    1172.93792560172     -47.86958926663
   Hamiltonian  2........    1110.89191012069    1158.40368332986     -47.51177320918
  
 SCFE: SCF energy: UDFT(b3lyp)      -925.63895760051 hartrees   iterations:  17
  
 
 Alpha HOMO energy:    -0.31877
 Alpha LUMO energy:    -0.22882
 
  Alpha Orbital energies (hartrees): 
   -19.28442   -19.27912   -10.43563   -10.42889   -10.41996   -10.41611
   -10.37852   -10.37380   -10.37355   -10.36541   -10.35046   -10.32659
   -10.32585   -10.31738   -10.31593   -10.31343   -10.31262   -10.30529
   -10.30348   -10.29500   -10.29099   -10.28587    -1.18333    -1.18199
    -1.12696    -1.05334    -0.98445    -0.97805    -0.92023    -0.90930
    -0.88481    -0.86842    -0.86256    -0.84472    -0.82774    -0.80359
    -0.78394    -0.76361    -0.74847    -0.73205    -0.71293    -0.69951
    -0.68359    -0.67511    -0.66449    -0.65086    -0.64155    -0.62778
    -0.61928    -0.61174    -0.59968    -0.58876    -0.58519    -0.58159
    -0.56417    -0.55855    -0.55165    -0.54452    -0.53731    -0.53454
    -0.52482    -0.51723    -0.50793    -0.49984    -0.49600    -0.48949
    -0.48432    -0.47492    -0.45520    -0.44430    -0.44036    -0.43405
    -0.41934    -0.40908    -0.39729    -0.38562    -0.36554    -0.35980
    -0.34236    -0.31877    -0.22882    -0.20255    -0.13936    -0.12250
    -0.11635    -0.10678    -0.08523    -0.06169    -0.05910    -0.04674
 
 
 Beta HOMO energy:    -0.33670
 Beta LUMO energy:    -0.22944
 
  Beta Orbital energies (hartrees): 
   -19.28451   -19.27901   -10.43644   -10.43015   -10.42007   -10.41141
   -10.37444   -10.37292   -10.36554   -10.36524   -10.35084   -10.32645
   -10.32582   -10.31635   -10.31577   -10.31355   -10.31252   -10.30530
   -10.30353   -10.29507   -10.29100   -10.28584    -1.18347    -1.18173
    -1.12099    -1.04986    -0.98347    -0.97604    -0.91884    -0.90866
    -0.88322    -0.86737    -0.85937    -0.84397    -0.82373    -0.80135
    -0.77636    -0.76142    -0.74767    -0.73138    -0.70958    -0.69573
    -0.68044    -0.66959    -0.66407    -0.64955    -0.64076    -0.62684
    -0.61660    -0.61098    -0.59925    -0.58582    -0.58194    -0.57978
    -0.56305    -0.55684    -0.55065    -0.54289    -0.53633    -0.53285
    -0.52363    -0.51617    -0.50495    -0.49763    -0.49527    -0.48869
    -0.48131    -0.47076    -0.45448    -0.44168    -0.43808    -0.42819
    -0.41881    -0.40795    -0.39680    -0.38083    -0.36361    -0.35773
    -0.33670    -0.22944    -0.21032    -0.19921    -0.13162    -0.12149
    -0.11419    -0.10480    -0.08474    -0.05650    -0.05280
 
  
  
    Unrestricted Spin Properties ...
    Sz*(Sz+1)      0.750
    <S**2> ...     0.771
  
  
  Peak memory usage:   6749 Mb
  
  end of program scf
   
 Time(scf)  user:      387.4  user+sys:      387.4  wallclock:       27.2
  
  start of program der1a
  
  Peak memory usage:   4838 Mb
  
  end of program der1a
   
 Time(der1a)  user:        2.9  user+sys:        2.9  wallclock:        0.5
  
  start of program rwr
  
  Peak memory usage:   4745 Mb
  
  end of program rwr
   
 Time(rwr)  user:       47.5  user+sys:       47.5  wallclock:        6.8
  
  start of program der1b
  
   
  forces (hartrees/bohr) : total     
   
 atom  label           x              y              z
 ---- --------   -------------  -------------  -------------
    1 C1         -1.409613E-02  -1.042030E-02   8.372492E-03
    2 C2         -1.732586E-03  -9.401588E-03   4.180312E-02
    3 C3         -6.915208E-02   2.755076E-02  -5.263847E-02
    4 C4          6.917620E-02  -4.471565E-02   7.975068E-02
    5 C5         -1.697026E-02  -3.025089E-02  -7.658106E-03
    6 C6          4.408786E-03   1.027302E-02  -3.924813E-03
    7 C7          1.109403E-03   5.486359E-04   2.798929E-03
    8 C8          8.882827E-03  -9.267697E-03   4.260030E-03
    9 C9          1.588013E-03   3.299193E-03  -4.790779E-03
   10 C10         1.610090E-03   5.644841E-03   2.548329E-03
   11 C11        -5.583111E-03  -3.299857E-03  -6.037143E-03
   12 C12        -6.172502E-04  -1.183832E-03   2.090681E-03
   13 C13        -1.049353E-02   1.641918E-02   2.628473E-03
   14 C14         7.818085E-02   1.843661E-01  -1.425471E-01
   15 C15        -5.890808E-02  -2.419108E-01   1.087697E-02
   16 C16         2.988437E-02  -1.247420E-02   4.788249E-03
   17 C17         1.920558E-02   1.914506E-02   1.444706E-02
   18 C18        -2.218181E-03   1.103467E-01   1.587684E-02
   19 C19        -6.840967E-04  -9.675449E-02   7.029820E-02
   20 C20        -3.116855E-03   1.152921E-01  -7.123957E-02
   21 O21        -1.149898E-02   9.895218E-04   1.525528E-03
   22 O22        -7.939438E-03  -1.976864E-03  -3.594221E-03
   23 H23         7.383313E-03   9.851386E-04   3.044689E-03
   24 H24        -1.240028E-04  -3.340113E-04   4.233098E-03
   25 H25         3.926701E-03   2.808370E-03   2.629494E-03
   26 H26         3.281744E-02  -4.416004E-03  -8.334554E-03
   27 H27         6.081746E-03  -9.930390E-03   1.848582E-02
   28 H28        -3.298168E-02  -3.095722E-02  -8.008688E-03
   29 H29        -9.476268E-03  -3.767362E-02  -3.505235E-02
   30 H30         1.321092E-02   3.297328E-02  -4.468868E-03
   31 H31         2.541918E-04  -2.067206E-03  -6.156772E-03
   32 H32        -4.271728E-03  -1.438470E-03  -3.924577E-03
   33 H33        -1.788511E-04  -3.633114E-03   1.052347E-03
   34 H34         2.718119E-03  -5.301695E-03  -1.410703E-03
   35 H35         7.628492E-03   2.197896E-04   1.033858E-02
   36 H36        -8.242353E-03   4.654363E-03   9.187002E-03
   37 H37         5.346886E-03  -1.093109E-02   1.219129E-02
   38 H38        -3.007821E-03  -5.844459E-04   2.588651E-02
   39 H39         5.578719E-03   4.992328E-03   1.560521E-02
   40 H40         3.619336E-03   1.545908E-02  -2.606558E-03
   41 H41        -1.326260E-02  -2.578340E-03  -2.783610E-02
   42 H42        -7.152624E-03   2.212099E-02   1.911921E-03
   43 H43        -9.177618E-03   1.254325E-02   4.993217E-03
   44 H44         9.720624E-04  -5.649627E-03   1.578394E-02
   45 H45        -3.083280E-03  -5.366598E-03   9.628311E-03
   46 H46        -9.522841E-03  -6.946117E-03  -6.988542E-03
 -------------   -------------  -------------  -------------
     total        9.180885E-05   1.167526E-03  -1.809226E-04
   
  Peak memory usage:   6743 Mb
  
  end of program der1b
   
 Time(der1b)  user:       68.1  user+sys:       68.1  wallclock:        4.7
  
  start of program geopt
  
 ----------------------------------------------------------------------------
  Geometry optimization step  1
  Total energy:      -925.63895760051 hartrees
 ----------------------------------------------------------------------------
  detected            2  molecular fragments
  
  
  Level shifts adjusted to satisfy step-size constraints
   Step size:    0.3000804
   Cos(theta):   0.9654374
   Final level shift:  -1.0420106E+00
  
  gradient maximum:        1.5292E-01 .  (  4.5000E-04 )
  gradient rms:            3.4848E-02 .  (  3.0000E-04 )
  displacement maximum:    1.0666E-01 .  (  1.8000E-03 )
  displacement rms:        2.2746E-02 .  (  1.2000E-03 )
  
  predicted energy change:  -1.1348E-01
  step size:     0.30004
  trust radius:  0.30000
  
  molecular structure not yet converged...
  
  center of mass moved by:
     x:    -2.2935E-02     y:     7.6266E-03     z:    -6.7572E-03
  
  new geometry: 
                                   angstroms
  atom               x                 y                 z
  C1            0.9704652617     -0.1142690420      0.1516362608 
  C2            2.3920836922      0.3670515848     -0.1148792284 
  C3            2.6954699047     -0.1691779081     -1.5978610056 
  C4            4.6554212430     -0.6585207064     -1.9306997921 
  C5            4.8449364431     -0.0049907764     -3.1909910331 
  C6            3.7271966664     -0.3297388801     -4.1471618421 
  C7            3.3033475143     -1.6586271545     -4.2947678953 
  C8            2.1709135540     -1.9582873320     -5.0409059685 
  C9            1.4758587339     -0.9264025879     -5.6748811385 
  C10           1.8723803214      0.4010718566     -5.5312494233 
  C11           2.9823312711      0.7061748691     -4.7380611222 
  C12           3.3415344569      2.1279245472     -4.4337115204 
  C13           3.9324965338      2.3323343187     -2.9914791394 
  C14           4.5379087962      1.0899882981     -2.0458847127 
  C15           3.7328510390     -0.1073324421     -0.3150737219 
  C16           4.4872318018     -0.4300759549      1.0283904019 
  C17           4.4624711870      1.0174097358      1.3894656795 
  C18           2.9573065914      1.3933274332      0.9843633810 
  C19           2.8647966700      2.7675098311      0.4737059465 
  C20           2.7511439600      3.8319125872     -0.0576901840 
  O21           2.1505906757      1.3306884360      2.1654340249 
  O22           0.3750639428     -1.1760818238     -6.4520870452 
  H23           0.6649538455     -1.0041349721     -0.4158910208 
  H24           0.3269744010      0.6970529065     -0.2199416252 
  H25           0.6991753015     -0.2885726330      1.1944531807 
  H26           2.2659789156      0.6612900279     -2.1781923577 
  H27           2.1557224811     -1.0624568030     -1.9081548473 
  H28           4.9823156997     -1.6498693507     -1.6158661722 
  H29           5.5748838284     -0.1981050737     -1.1380831637 
  H30           5.8293965763     -0.3861051358     -3.4934496714 
  H31           3.8175915076     -2.4432866025     -3.7450550258 
  H32           1.8523962382     -2.9920336488     -5.1046954736 
  H33           1.2972625930      1.1919203682     -6.0046056143 
  H34           2.4488699346      2.7712785805     -4.5071950237 
  H35           4.0058641763      2.4992604775     -5.2324838369 
  H36           3.1638570134      2.8370675607     -2.4308990448 
  H37           4.7397527829      3.0750889086     -3.1148985562 
  H38           5.5603146160      1.4901177880     -1.9199856272 
  H39           3.4927538092     -1.2827779647     -0.4468082780 
  H40           5.3998409728     -1.0332469756      0.8939038843 
  H41           3.9208510906     -0.9985045195      1.8022179607 
  H42           5.2433574018      1.4568525414      0.7602086191 
  H43           4.7147637177      1.2389218942      2.4252925870 
  H44           2.6467787359      4.7149107064     -0.6653856785 
  H45           2.2367491713      0.4385532412      2.5503657771 
  H46           0.2223179007     -2.1363723099     -6.4846487815 
   
  nuclear repulsion energy.......    1882.792689403 hartrees
  -------------------------------------------------
 /  end of geometry optimization iteration   1   /
 -------------------------------------------------
   
  Peak memory usage:   4731 Mb
  
  end of program geopt
   
 Time(geopt)  user:        7.7  user+sys:        7.7  wallclock:        0.6
  
  start of program onee
  
  smallest eigenvalue of S:    4.558E-04
  number of canonical orbitals.....          245
  Peak memory usage:   4838 Mb
  
  end of program onee
   
 Time(onee)  user:        2.9  user+sys:        2.9  wallclock:        0.5
  
  start of program probe
  
  Peak memory usage:   4756 Mb
  
  end of program probe
   
 Time(probe)  user:        2.1  user+sys:        2.1  wallclock:        0.4
  
  start of program grid
  
   grid     grid set  grid #  grid sym
  ------    --------  ------  --------
  coarse        0        0        1
  medium        2        1        1
  fine          0        0        1
  ultrafine     4        2        1
  charge       -1        3        1
  gradient      4        2        1
  density       0        0        1
  DFT-fine    -11        4        1
  DFT-med.    -10        5        1
  DFT-grad    -12        6        1
  DFT-der2      0        0        1
  DFT-cphf      0        0        1
  LMP2-enrg     4        2        1
  LMP2-grad     2        1        1
  DFT-cphf2     0        0        1
  PBF-dens      0        0        1
  plotting      0        0        1
  Rel-grad    -17        0        1
  
  number of gridpoints: 
     atom        C1       C2       C3       C4       C5       C6       C7
  grid # 1       77       96       86       87       95      101       96
  grid # 2      269      346      294      304      321      363      335
  grid # 3        7        6        6        6       15      107      134
  grid # 4     4304     4304     4304     4304     4304     4304     4304
  grid # 5     1192     1192     1192     1192     1192     1192     1192
  grid # 6     5226     5226     5226     5226     5226     5226     5226
   
  number of gridpoints: 
     atom        C8       C9      C10      C11      C12      C13      C14
  grid # 1       96       96       96       99       86       87       96
  grid # 2      331      354      332      359      292      298      344
  grid # 3      159      211      181       73        6        6        8
  grid # 4     4304     4304     4304     4304     4304     4304     4304
  grid # 5     1192     1192     1192     1192     1192     1192     1192
  grid # 6     5226     5226     5226     5226     5226     5226     5226
   
  number of gridpoints: 
     atom       C15      C16      C17      C18      C19      C20      O21
  grid # 1       90       84       82       97      104      100      112
  grid # 2      322      286      286      337      404      384      425
  grid # 3        6        6        6        6      231      507      591
  grid # 4     4304     4304     4304     4304     4304     4304     4304
  grid # 5     1192     1192     1192     1192     1192     1192     1192
  grid # 6     5226     5226     5226     5226     5226     5226     5226
   
  number of gridpoints: 
     atom       O22      H23      H24      H25      H26      H27      H28
  grid # 1      114      105      106      107      103      101      105
  grid # 2      426      427      437      426      406      411      416
  grid # 3      831      838      941      788      245      329      573
  grid # 4     4304     4304     4304     4304     4304     4304     4304
  grid # 5     1192     1192     1192     1192     1192     1192     1192
  grid # 6     5226     5226     5226     5226     5226     5226     5226
   
  number of gridpoints: 
     atom       H29      H30      H31      H32      H33      H34      H35
  grid # 1       98      112      114      116      116      107      110
  grid # 2      405      440      435      441      441      430      443
  grid # 3      301      986      802     1087     1067      750     1032
  grid # 4     4304     4304     4304     4304     4304     4304     4304
  grid # 5     1192     1192     1192     1192     1192     1192     1192
  grid # 6     5226     5226     5226     5226     5226     5226     5226
   
  number of gridpoints: 
     atom       H36      H37      H38      H39      H40      H41      H42
  grid # 1      106      108      106       95      110      109      106
  grid # 2      403      434      416      409      428      431      426
  grid # 3      257      819      534      325      843      719      595
  grid # 4     4304     4304     4304     4304     4304     4304     4304
  grid # 5     1192     1192     1192     1192     1192     1192     1192
  grid # 6     5226     5226     5226     5226     5226     5226     5226
   
  number of gridpoints: 
     atom       H43      H44      H45      H46    total
  grid # 1      112      119      108      113     4669
  grid # 2      441      456      424      447    17685
  grid # 3     1029     1447      675     1262    21353
  grid # 4     4304     4304     4304     4304   197984
  grid # 5     1192     1192     1192     1192    54832
  grid # 6     5226     5226     5226     5226   240396
   
  Peak memory usage:   4790 Mb
  
  end of program grid
   
 Time(grid)  user:       32.2  user+sys:       32.2  wallclock:        2.9
  
  start of program rwr
  
  Peak memory usage:   4745 Mb
  
  end of program rwr
   
 Time(rwr)  user:       60.3  user+sys:       60.3  wallclock:        5.9
  
  start of program scf
  
 Energy computed with NOPS off.
  
       i  u  d  i  g                   
       t  p  i  c  r                                 RMS    maximum
       e  d  i  u  i                       energy  density   DIIS  
       r  t  s  t  d       total energy    change  change    error 
  
etot    1  N  N  2  U    -925.71646549270           1.5E-03  1.2E-02
etot    2  Y  Y  6  M    -925.74870675177  3.2E-02  8.1E-04  4.2E-03
etot    3  N  Y  2  U    -925.74580957854 -2.9E-03  4.7E-04  7.8E-03
etot    4  Y  Y  6  M    -925.75139515980  5.6E-03  8.6E-05  8.8E-04
etot    5  N  Y  2  U    -925.75151848721  1.2E-04  5.4E-05  7.8E-04
etot    6  Y  Y  6  M    -925.75155581660  3.7E-05  4.8E-05  4.4E-04
etot    7  N  Y  2  U    -925.75157411619  1.8E-05  3.7E-05  2.0E-04
etot    8  N  Y  2  U    -925.75158124872  7.1E-06  2.3E-05  1.3E-04
etot    9  N  Y  2  U    -925.75158345800  2.2E-06  8.5E-06  5.6E-05
etot   10  N  Y  2  U    -925.75158379421  3.4E-07  3.5E-06  3.5E-05
etot   11  N  N  2  U    -925.75158399593  2.0E-07  0.0E+00  0.0E+00
  
  
 Energy components, in hartrees:
   (A)  Nuclear repulsion............    1882.79268940284
   (E)  Total one-electron terms.....   -4974.05441207697
   (I)  Total two-electron terms.....    2165.51013867820
   (L)  Electronic energy............   -2808.54427339877  (E+I)
   (N)  Total energy.................    -925.75158399593  (A+L)
   (O)  Gas phase energy.............    -925.75158399593
  
                                 Total             Coulomb       Exchange+Corr.
 Total two-electron terms    2165.51013867820    2299.84560693536    -134.33546825716
   Hamiltonian  1........    1109.34150335650    1157.15802094451     -47.81651758801
   Hamiltonian  2........    1095.23807118683    1142.68758599085     -47.44951480402
  
 SCFE: SCF energy: UDFT(b3lyp)      -925.75158399593 hartrees   iterations:  11
  
 
 Alpha HOMO energy:    -0.32725
 Alpha LUMO energy:    -0.22339
 
  Alpha Orbital energies (hartrees): 
   -19.28310   -19.27680   -10.43686   -10.42161   -10.41916   -10.41899
   -10.37469   -10.37465   -10.36961   -10.36377   -10.34970   -10.32780
   -10.32329   -10.31507   -10.31410   -10.31203   -10.31092   -10.30179
   -10.30173   -10.29605   -10.29326   -10.29112    -1.17745    -1.17502
    -1.10482    -1.03713    -0.97778    -0.96544    -0.91395    -0.90235
    -0.87648    -0.86453    -0.85837    -0.83534    -0.81899    -0.80328
    -0.77356    -0.75949    -0.74688    -0.72888    -0.70690    -0.69621
    -0.67415    -0.66657    -0.65791    -0.64583    -0.63728    -0.62039
    -0.61490    -0.60681    -0.59723    -0.58421    -0.57919    -0.57679
    -0.56103    -0.55585    -0.55079    -0.54512    -0.53290    -0.53023
    -0.51916    -0.51403    -0.50487    -0.49848    -0.49443    -0.48620
    -0.48430    -0.47338    -0.45236    -0.44419    -0.43972    -0.43436
    -0.41741    -0.40462    -0.39398    -0.38925    -0.36336    -0.36010
    -0.34753    -0.32725    -0.22339    -0.20697    -0.13795    -0.12073
    -0.11517    -0.10471    -0.08540    -0.06098    -0.05611    -0.04938
 
 
 Beta HOMO energy:    -0.33470
 Beta LUMO energy:    -0.23429
 
  Beta Orbital energies (hartrees): 
   -19.28315   -19.27667   -10.43782   -10.42188   -10.41906   -10.41529
   -10.37525   -10.37446   -10.36359   -10.35555   -10.35014   -10.32771
   -10.32317   -10.31400   -10.31394   -10.31212   -10.31079   -10.30186
   -10.30173   -10.29606   -10.29331   -10.29112    -1.17755    -1.17473
    -1.10018    -1.03269    -0.97658    -0.96394    -0.91254    -0.90183
    -0.87532    -0.86319    -0.85476    -0.83457    -0.81577    -0.80088
    -0.76648    -0.75624    -0.74611    -0.72822    -0.70357    -0.69244
    -0.67130    -0.66169    -0.65731    -0.64458    -0.63667    -0.61984
    -0.61210    -0.60609    -0.59666    -0.58143    -0.57701    -0.57395
    -0.55990    -0.55472    -0.54907    -0.54377    -0.53178    -0.52795
    -0.51790    -0.51322    -0.50130    -0.49691    -0.49211    -0.48422
    -0.48145    -0.47002    -0.45154    -0.44068    -0.43669    -0.43017
    -0.41615    -0.40373    -0.38939    -0.38726    -0.36196    -0.35873
    -0.33470    -0.23429    -0.20845    -0.20322    -0.13281    -0.11959
    -0.11347    -0.10316    -0.08494    -0.05769    -0.05037
 
  
  
    Unrestricted Spin Properties ...
    Sz*(Sz+1)      0.750
    <S**2> ...     0.765
  
  
  Peak memory usage:   6749 Mb
  
  end of program scf
   
 Time(scf)  user:      272.0  user+sys:      272.0  wallclock:       18.6
  
  start of program der1a
  
  Peak memory usage:   4838 Mb
  
  end of program der1a
   
 Time(der1a)  user:        2.4  user+sys:        2.4  wallclock:        0.5
  
  start of program rwr
  
  Peak memory usage:   4748 Mb
  
  end of program rwr
   
 Time(rwr)  user:       48.5  user+sys:       48.5  wallclock:        6.2
  
  start of program der1b
  
   
  forces (hartrees/bohr) : total     
   
 atom  label           x              y              z
 ---- --------   -------------  -------------  -------------
    1 C1         -1.022607E-02  -1.221604E-02   6.074069E-03
    2 C2          1.116816E-02   3.158451E-03   3.728035E-02
    3 C3         -5.781266E-02   4.133500E-02  -4.357573E-02
    4 C4          7.894841E-02  -3.020985E-02   7.327032E-02
    5 C5         -2.734403E-02  -2.475487E-02   8.296089E-03
    6 C6          4.279344E-03   5.291202E-03  -2.774583E-03
    7 C7          8.497284E-04   2.005632E-03   2.265428E-03
    8 C8          6.993316E-03  -6.801565E-03   3.364904E-03
    9 C9          7.669400E-04   1.889047E-03  -4.693231E-03
   10 C10         2.194356E-03   3.970727E-03   3.188195E-03
   11 C11        -4.200687E-03  -2.995801E-03  -3.310444E-03
   12 C12         1.113385E-03  -1.283737E-03   2.695517E-03
   13 C13        -1.481051E-02   1.034009E-02   1.168798E-02
   14 C14         7.008400E-02   1.478599E-01  -1.491057E-01
   15 C15        -6.500953E-02  -2.357913E-01   2.219117E-02
   16 C16         2.226789E-02   1.065953E-02   3.152701E-03
   17 C17         1.412237E-02   1.016628E-02   7.327363E-03
   18 C18        -3.467683E-03   8.859046E-02   6.991868E-03
   19 C19         3.219154E-03  -3.346572E-02   2.037538E-02
   20 C20        -4.323742E-03   3.979409E-02  -2.772799E-02
   21 O21        -6.804874E-03  -3.410920E-03   1.481664E-03
   22 O22        -4.014176E-03  -1.128463E-03  -9.708005E-04
   23 H23         6.158717E-03   1.764908E-04   1.823076E-03
   24 H24         2.806022E-04  -1.821092E-04   3.467465E-03
   25 H25         3.414215E-03   1.928542E-03   5.450240E-04
   26 H26         3.571909E-02   1.088746E-03  -1.130020E-02
   27 H27         9.345869E-03  -7.987181E-03   1.547489E-02
   28 H28        -3.755066E-02  -2.591700E-02  -9.257527E-03
   29 H29        -2.257921E-02  -2.669825E-02  -3.663870E-02
   30 H30         9.826218E-03   2.775629E-02  -3.982336E-03
   31 H31         6.191717E-04  -1.630864E-03  -4.666278E-03
   32 H32        -3.101420E-03  -8.037485E-04  -3.271734E-03
   33 H33        -4.290933E-04  -2.812983E-03   5.274617E-04
   34 H34         2.229118E-03  -4.388559E-03  -7.786679E-04
   35 H35         5.212596E-03  -2.857933E-04   7.641336E-03
   36 H36        -6.656378E-03   6.073357E-03   9.589571E-03
   37 H37         3.713981E-03  -8.936749E-03   1.024551E-02
   38 H38        -4.986170E-03  -4.246591E-03   2.648894E-02
   39 H39         1.241329E-02   1.047075E-02   2.324418E-02
   40 H40         4.028133E-03   1.602626E-02  -1.773659E-03
   41 H41        -1.056151E-02  -3.221856E-03  -2.372115E-02
   42 H42        -8.134041E-03   1.495305E-02   7.159311E-04
   43 H43        -8.874195E-03   6.995270E-03   3.746518E-03
   44 H44         9.583227E-04  -3.716495E-03   1.102213E-02
   45 H45        -1.743061E-03  -3.241364E-03   8.101010E-03
   46 H46        -7.261465E-03  -3.811901E-03  -5.438929E-03
 -------------   -------------  -------------  -------------
     total        3.521535E-05   5.894706E-04  -7.115889E-04
   
  Peak memory usage:   6743 Mb
  
  end of program der1b
   
 Time(der1b)  user:       67.5  user+sys:       67.5  wallclock:        4.8
  
  start of program geopt
  
 ----------------------------------------------------------------------------
  Geometry optimization step  2
  Total energy:      -925.75158399593 hartrees
 ----------------------------------------------------------------------------
  detected            2  molecular fragments
  
  
  Level shifts adjusted to satisfy step-size constraints
   Step size:    0.3001699
   Cos(theta):   0.9776898
   Final level shift:  -8.3856544E-01
  
  energy change:          -1.1263E-01 .  (  5.0000E-05 )
  gradient maximum:        1.2507E-01 .  (  4.5000E-04 )
  gradient rms:            2.4218E-02 .  (  3.0000E-04 )
  displacement maximum:    1.1946E-01 .  (  1.8000E-03 )
  displacement rms:        2.2752E-02 .  (  1.2000E-03 )
  
  predicted energy change:  -8.4649E-02
  step size:     0.30012
  trust radius:  0.30000
  
  molecular structure not yet converged...
  
  center of mass moved by:
     x:    -1.9241E-02     y:     1.7573E-03     z:     2.2928E-03
  
  new geometry: 
                                   angstroms
  atom               x                 y                 z
  C1            0.9747849734     -0.1742736179      0.2364095101 
  C2            2.3891925268      0.3208840728     -0.0580981118 
  C3            2.7023968906     -0.2193908526     -1.5570787676 
  C4            4.6709350899     -0.6912216880     -1.9207701611 
  C5            4.8625731033     -0.0521346013     -3.2091203718 
  C6            3.7273279224     -0.3468281423     -4.1607077122 
  C7            3.2615016951     -1.6647297798     -4.3093009583 
  C8            2.1254634970     -1.9386772319     -5.0643874730 
  C9            1.4644474643     -0.8903928959     -5.7130092824 
  C10           1.9059200965      0.4257016176     -5.5745462003 
  C11           3.0213212639      0.7055991428     -4.7771418183 
  C12           3.4328857154      2.1246348624     -4.5081897272 
  C13           4.0405728739      2.3560891786     -3.0819184304 
  C14           4.6052504838      1.1141891766     -2.1365825174 
  C15           3.7409749421     -0.1555737756     -0.2753308525 
  C16           4.5480733143     -0.3910236602      1.0484926530 
  C17           4.4436382220      1.0758415103      1.4067258134 
  C18           2.9217504446      1.4047611943      1.0334477663 
  C19           2.7514252093      2.7716628192      0.5241898229 
  C20           2.5754761306      3.8433681282      0.0022245847 
  O21           2.1317409831      1.3048597131      2.2306435628 
  O22           0.3567213447     -1.1042523318     -6.5011070729 
  H23           0.6798970629     -1.0723714177     -0.3213645331 
  H24           0.3156045572      0.6273189802     -0.1264288279 
  H25           0.7292744423     -0.3382381763      1.2866771305 
  H26           2.3138874164      0.6010395442     -2.1737506537 
  H27           2.1621706686     -1.1171233527     -1.8477878267 
  H28           4.9663736746     -1.7001535823     -1.6059557341 
  H29           5.6181073441     -0.2730482056     -1.1860372063 
  H30           5.8525438657     -0.4037430382     -3.5286752500 
  H31           3.7554935855     -2.4698119816     -3.7713478591 
  H32           1.7741684235     -2.9624694977     -5.1312745706 
  H33           1.3585446649      1.2290685917     -6.0574126430 
  H34           2.5661269362      2.7946394114     -4.6138175347 
  H35           4.1326084686      2.4466297418     -5.2964309822 
  H36           3.3018974758      2.9199187669     -2.5245626517 
  H37           4.8925446844      3.0417040188     -3.2154364890 
  H38           5.6338279313      1.4788509774     -1.9770405619 
  H39           3.5023583345     -1.3215534989     -0.4010513388 
  H40           5.4870180217     -0.9448454257      0.9051977527 
  H41           4.0041515291     -0.9817450069      1.8147442485 
  H42           5.1713525255      1.5840394999      0.7660219374 
  H43           4.6912817323      1.3306965441      2.4373180221 
  H44           2.4213529346      4.7316302681     -0.5793435149 
  H45           2.2714694583      0.4245522666      2.6333475161 
  H46           0.1584645921     -2.0581183437     -6.5404312140 
   
  nuclear repulsion energy.......    1863.483207578 hartrees
  -------------------------------------------------
 /  end of geometry optimization iteration   2   /
 -------------------------------------------------
   
  Peak memory usage:   4732 Mb
  
  end of program geopt
   
 Time(geopt)  user:        7.8  user+sys:        7.8  wallclock:        0.6
  
  start of program onee
  
  smallest eigenvalue of S:    4.777E-04
  number of canonical orbitals.....          245
  Peak memory usage:   4838 Mb
  
  end of program onee
   
 Time(onee)  user:        1.7  user+sys:        1.7  wallclock:        0.5
  
  start of program probe
  
  Peak memory usage:   4756 Mb
  
  end of program probe
   
 Time(probe)  user:        2.5  user+sys:        2.5  wallclock:        0.4
  
  start of program grid
  
   grid     grid set  grid #  grid sym
  ------    --------  ------  --------
  coarse        0        0        1
  medium        2        1        1
  fine          0        0        1
  ultrafine     4        2        1
  charge       -1        3        1
  gradient      4        2        1
  density       0        0        1
  DFT-fine    -11        4        1
  DFT-med.    -10        5        1
  DFT-grad    -12        6        1
  DFT-der2      0        0        1
  DFT-cphf      0        0        1
  LMP2-enrg     4        2        1
  LMP2-grad     2        1        1
  DFT-cphf2     0        0        1
  PBF-dens      0        0        1
  plotting      0        0        1
  Rel-grad    -17        0        1
  
  number of gridpoints: 
     atom        C1       C2       C3       C4       C5       C6       C7
  grid # 1       79       97       85       87       94      101       96
  grid # 2      266      350      297      306      312      364      336
  grid # 3        6        7        6        6       12      104      134
  grid # 4     4304     4304     4304     4304     4304     4304     4304
  grid # 5     1192     1192     1192     1192     1192     1192     1192
  grid # 6     5226     5226     5226     5226     5226     5226     5226
   
  number of gridpoints: 
     atom        C8       C9      C10      C11      C12      C13      C14
  grid # 1       96       98       96       98       86       86       96
  grid # 2      331      353      333      360      289      298      346
  grid # 3      169      207      186       73        6        6       10
  grid # 4     4304     4304     4304     4304     4304     4304     4304
  grid # 5     1192     1192     1192     1192     1192     1192     1192
  grid # 6     5226     5226     5226     5226     5226     5226     5226
   
  number of gridpoints: 
     atom       C15      C16      C17      C18      C19      C20      O21
  grid # 1       92       86       84       96      104      100      112
  grid # 2      332      290      290      339      407      384      426
  grid # 3        6        6        6        6      233      509      586
  grid # 4     4304     4304     4304     4304     4304     4304     4304
  grid # 5     1192     1192     1192     1192     1192     1192     1192
  grid # 6     5226     5226     5226     5226     5226     5226     5226
   
  number of gridpoints: 
     atom       O22      H23      H24      H25      H26      H27      H28
  grid # 1      114      105      107      106      104      102      105
  grid # 2      428      429      436      424      409      413      416
  grid # 3      820      843      951      782      288      343      591
  grid # 4     4304     4304     4304     4304     4304     4304     4304
  grid # 5     1192     1192     1192     1192     1192     1192     1192
  grid # 6     5226     5226     5226     5226     5226     5226     5226
   
  number of gridpoints: 
     atom       H29      H30      H31      H32      H33      H34      H35
  grid # 1       99      112      114      117      116      107      110
  grid # 2      410      441      437      442      441      431      443
  grid # 3      314      994      814     1089     1066      752     1017
  grid # 4     4304     4304     4304     4304     4304     4304     4304
  grid # 5     1192     1192     1192     1192     1192     1192     1192
  grid # 6     5226     5226     5226     5226     5226     5226     5226
   
  number of gridpoints: 
     atom       H36      H37      H38      H39      H40      H41      H42
  grid # 1      106      108      106       95      110      109      107
  grid # 2      411      431      418      406      429      427      430
  grid # 3      311      839      545      333      846      726      610
  grid # 4     4304     4304     4304     4304     4304     4304     4304
  grid # 5     1192     1192     1192     1192     1192     1192     1192
  grid # 6     5226     5226     5226     5226     5226     5226     5226
   
  number of gridpoints: 
     atom       H43      H44      H45      H46    total
  grid # 1      112      119      108      113     4680
  grid # 2      441      456      426      449    17733
  grid # 3     1022     1498      688     1278    21644
  grid # 4     4304     4304     4304     4304   197984
  grid # 5     1192     1192     1192     1192    54832
  grid # 6     5226     5226     5226     5226   240396
   
  Peak memory usage:   4790 Mb
  
  end of program grid
   
 Time(grid)  user:       32.5  user+sys:       32.5  wallclock:        2.9
  
  start of program rwr
  
  Peak memory usage:   4745 Mb
  
  end of program rwr
   
 Time(rwr)  user:       56.7  user+sys:       56.7  wallclock:        5.9
  
  start of program scf
  
 Energy computed with NOPS off.
  
       i  u  d  i  g                   
       t  p  i  c  r                                 RMS    maximum
       e  d  i  u  i                       energy  density   DIIS  
       r  t  s  t  d       total energy    change  change    error 
  
etot    1  N  N  2  U    -925.82074182145           9.8E-04  6.0E-03
etot    2  Y  Y  6  M    -925.83640319234  1.6E-02  4.2E-04  2.7E-03
etot    3  N  Y  2  U    -925.83595288635 -4.5E-04  2.2E-04  4.0E-03
etot    4  Y  Y  6  M    -925.83732588389  1.4E-03  5.1E-05  6.8E-04
etot    5  Y  Y  6  M    -925.83735904028  3.3E-05  3.4E-05  6.3E-04
etot    6  N  Y  2  U    -925.83738370801  2.5E-05  2.7E-05  2.6E-04
etot    7  N  Y  2  U    -925.83739151605  7.8E-06  2.1E-05  1.3E-04
etot    8  N  Y  2  U    -925.83739480130  3.3E-06  9.0E-06  5.9E-05
etot    9  N  Y  2  U    -925.83739532252  5.2E-07  3.0E-06  2.7E-05
etot   10  N  N  2  U    -925.83739542067  9.8E-08  0.0E+00  0.0E+00
  
  
 Energy components, in hartrees:
   (A)  Nuclear repulsion............    1863.48320757765
   (E)  Total one-electron terms.....   -4935.97634501244
   (I)  Total two-electron terms.....    2146.65574201413
   (L)  Electronic energy............   -2789.32060299831  (E+I)
   (N)  Total energy.................    -925.83739542067  (A+L)
   (O)  Gas phase energy.............    -925.83739542067
  
                                 Total             Coulomb       Exchange+Corr.
 Total two-electron terms    2146.65574201413    2280.92042499281    -134.26468297868
   Hamiltonian  1........    1099.86814427981    1147.66004834276     -47.79190406295
   Hamiltonian  2........    1085.83763458465    1133.26037665006     -47.42274206540
  
 SCFE: SCF energy: UDFT(b3lyp)      -925.83739542067 hartrees   iterations:  10
  
 
 Alpha HOMO energy:    -0.32973
 Alpha LUMO energy:    -0.21591
 
  Alpha Orbital energies (hartrees): 
   -19.28233   -19.27524   -10.43432   -10.42147   -10.41846   -10.41612
   -10.37662   -10.37312   -10.36281   -10.36276   -10.34888   -10.32794
   -10.32169   -10.31331   -10.31227   -10.31118   -10.30973   -10.30094
   -10.29953   -10.29828   -10.29326   -10.29217    -1.17282    -1.17000
    -1.09059    -1.02497    -0.97293    -0.95729    -0.91124    -0.89949
    -0.87225    -0.86227    -0.85647    -0.83173    -0.81327    -0.80396
    -0.76655    -0.75574    -0.74635    -0.72634    -0.70264    -0.69342
    -0.66878    -0.66094    -0.65337    -0.64258    -0.63491    -0.61627
    -0.61134    -0.60583    -0.59586    -0.58207    -0.57601    -0.57326
    -0.55968    -0.55501    -0.54913    -0.54486    -0.53028    -0.52732
    -0.51530    -0.51204    -0.50409    -0.49901    -0.49284    -0.48781
    -0.48180    -0.47152    -0.45067    -0.44568    -0.43880    -0.43393
    -0.41687    -0.40641    -0.40116    -0.38796    -0.36390    -0.35998
    -0.35405    -0.32973    -0.21591    -0.20816    -0.13594    -0.11888
    -0.11219    -0.10275    -0.08361    -0.06055    -0.05149    -0.04977
 
 
 Beta HOMO energy:    -0.33340
 Beta LUMO energy:    -0.23471
 
  Beta Orbital energies (hartrees): 
   -19.28235   -19.27512   -10.43501   -10.41879   -10.41850   -10.41591
   -10.37697   -10.37309   -10.36261   -10.34932   -10.34813   -10.32788
   -10.32157   -10.31317   -10.31132   -10.31125   -10.30962   -10.30101
   -10.29951   -10.29829   -10.29325   -10.29220    -1.17286    -1.16974
    -1.08708    -1.02001    -0.97146    -0.95621    -0.90975    -0.89912
    -0.87146    -0.86080    -0.85256    -0.83092    -0.81080    -0.80128
    -0.76123    -0.75106    -0.74513    -0.72576    -0.69994    -0.68899
    -0.66600    -0.65762    -0.65178    -0.64137    -0.63429    -0.61565
    -0.60912    -0.60464    -0.59514    -0.57955    -0.57445    -0.57036
    -0.55843    -0.55436    -0.54743    -0.54355    -0.52916    -0.52465
    -0.51407    -0.51154    -0.50037    -0.49778    -0.49009    -0.48233
    -0.48111    -0.46917    -0.44973    -0.44198    -0.43492    -0.43201
    -0.41553    -0.40396    -0.39562    -0.38782    -0.36151    -0.35946
    -0.33340    -0.23471    -0.20925    -0.19916    -0.13257    -0.11792
    -0.11085    -0.10146    -0.08294    -0.05835    -0.04888
 
  
  
    Unrestricted Spin Properties ...
    Sz*(Sz+1)      0.750
    <S**2> ...     0.759
  
  
  Peak memory usage:   6749 Mb
  
  end of program scf
   
 Time(scf)  user:      230.8  user+sys:      230.8  wallclock:       16.1
  
  start of program der1a
  
  Peak memory usage:   4838 Mb
  
  end of program der1a
   
 Time(der1a)  user:        2.3  user+sys:        2.3  wallclock:        0.5
  
  start of program rwr
  
  Peak memory usage:   4748 Mb
  
  end of program rwr
   
 Time(rwr)  user:       45.6  user+sys:       45.6  wallclock:        6.1
  
  start of program der1b
  
   
  forces (hartrees/bohr) : total     
   
 atom  label           x              y              z
 ---- --------   -------------  -------------  -------------
    1 C1         -6.260378E-03  -1.201986E-02   3.795065E-03
    2 C2          1.980364E-02   8.509583E-03   2.991692E-02
    3 C3         -4.674621E-02   5.232084E-02  -3.834179E-02
    4 C4          8.277052E-02  -2.838313E-02   6.655401E-02
    5 C5         -3.418644E-02  -1.528583E-02   1.911306E-02
    6 C6          4.110599E-03   1.864831E-03  -4.446733E-03
    7 C7          9.050204E-04   2.589903E-03   1.501255E-03
    8 C8          5.167961E-03  -4.660225E-03   2.134245E-03
    9 C9         -1.430529E-06   1.019625E-03  -4.444643E-03
   10 C10         2.147720E-03   2.499058E-03   3.528112E-03
   11 C11        -2.562135E-03  -2.535915E-03  -9.865474E-04
   12 C12         3.185721E-03  -1.667598E-03   2.616928E-03
   13 C13        -1.438088E-02   5.495154E-03   1.765841E-02
   14 C14         6.052098E-02   1.239860E-01  -1.477838E-01
   15 C15        -6.713758E-02  -2.282009E-01   2.903968E-02
   16 C16         1.407521E-02   2.407579E-02   1.416053E-05
   17 C17         1.194040E-02   8.203903E-03   4.112730E-03
   18 C18        -3.982234E-03   6.954648E-02   6.316814E-04
   19 C19         3.208742E-03  -1.616878E-02   9.883821E-03
   20 C20        -2.804868E-03   1.729169E-02  -1.589066E-02
   21 O21        -4.679780E-03  -4.368935E-03  -5.243464E-04
   22 O22        -1.254890E-03  -1.265215E-03   9.737432E-04
   23 H23         4.962469E-03  -3.340088E-04   1.564534E-03
   24 H24         2.916857E-04  -2.441215E-04   2.733943E-03
   25 H25         3.287150E-03   1.111036E-03   8.564027E-05
   26 H26         3.346936E-02   1.011637E-03  -8.783492E-03
   27 H27         1.024759E-02  -7.774457E-03   1.334242E-02
   28 H28        -3.902608E-02  -2.095408E-02  -1.145751E-02
   29 H29        -3.177276E-02  -1.834909E-02  -3.300148E-02
   30 H30         6.516565E-03   2.235259E-02  -3.282814E-03
   31 H31         7.317350E-04  -1.136075E-03  -3.306952E-03
   32 H32        -2.052512E-03  -3.701388E-04  -2.635386E-03
   33 H33        -5.113289E-04  -2.123703E-03   2.413774E-05
   34 H34         1.760232E-03  -3.281514E-03  -4.711583E-04
   35 H35         2.967050E-03  -5.999119E-04   4.792641E-03
   36 H36        -3.750422E-03   4.503182E-03   7.748537E-03
   37 H37         2.150794E-03  -5.926151E-03   7.428903E-03
   38 H38        -5.507138E-03  -5.070780E-03   2.617865E-02
   39 H39         1.602515E-02   1.364171E-02   2.638287E-02
   40 H40         4.401633E-03   1.595228E-02  -1.105324E-03
   41 H41        -8.236534E-03  -3.629522E-03  -1.928091E-02
   42 H42        -6.737551E-03   9.709640E-03   1.592631E-04
   43 H43        -7.634087E-03   3.542929E-03   2.903199E-03
   44 H44         6.826464E-04  -1.620263E-03   8.482250E-03
   45 H45        -7.779609E-04  -1.195014E-03   5.894863E-03
   46 H46        -5.307006E-03  -1.598051E-03  -4.167227E-03
 -------------   -------------  -------------  -------------
     total        2.036802E-05   4.645407E-04  -7.150632E-04
   
  Peak memory usage:   6743 Mb
  
  end of program der1b
   
 Time(der1b)  user:       65.0  user+sys:       65.0  wallclock:        4.5
  
  start of program geopt
  
 ----------------------------------------------------------------------------
  Geometry optimization step  3
  Total energy:      -925.83739542067 hartrees
 ----------------------------------------------------------------------------
  detected            2  molecular fragments
  detected            2  molecular fragments
  
  
  Level shifts adjusted to satisfy step-size constraints
   Step size:    0.3002319
   Cos(theta):   0.9947997
   Final level shift:  -7.6191998E-01
  
  energy change:          -8.5811E-02 .  (  5.0000E-05 )
  gradient maximum:        1.0811E-01 .  (  4.5000E-04 )
  gradient rms:            1.9976E-02 .  (  3.0000E-04 )
  displacement maximum:    1.2477E-01 .  (  1.8000E-03 )
  displacement rms:        2.2757E-02 .  (  1.2000E-03 )
  
  predicted energy change:  -7.3685E-02
  step size:     0.30018
  trust radius:  0.30000
  
  molecular structure not yet converged...
  
  center of mass moved by:
     x:    -1.2367E-02     y:    -3.3946E-03     z:     6.2157E-03
  
  new geometry: 
                                   angstroms
  atom               x                 y                 z
  C1            0.9733310637     -0.2066731671      0.2952055566 
  C2            2.3868511063      0.2969767444      0.0036741492 
  C3            2.7195581718     -0.2159552866     -1.5179547433 
  C4            4.6594414658     -0.7084790948     -1.9095242087 
  C5            4.8507306702     -0.0817802367     -3.2215879089 
  C6            3.7122603861     -0.3625565221     -4.1764670685 
  C7            3.2246790875     -1.6739492228     -4.3264042815 
  C8            2.0962838647     -1.9369478161     -5.0995730489 
  C9            1.4640855662     -0.8823514909     -5.7696575169 
  C10           1.9323345451      0.4266303083     -5.6358004096 
  C11           3.0418789726      0.6955029441     -4.8253622077 
  C12           3.4940615024      2.1129459014     -4.5967285656 
  C13           4.1131694768      2.3804417223     -3.1855841815 
  C14           4.6386121459      1.1488491412     -2.2334159429 
  C15           3.7388528657     -0.1981628705     -0.2240814268 
  C16           4.5957577028     -0.3619370504      1.0710194539 
  C17           4.4374085635      1.1139553271      1.4368798228 
  C18           2.9053312529      1.4143410264      1.0969556669 
  C19           2.6828858658      2.7815996745      0.6137911153 
  C20           2.4633286335      3.8686546928      0.1247501058 
  O21           2.1319323713      1.2759664515      2.3057020677 
  O22           0.3620071557     -1.0755023295     -6.5768654224 
  H23           0.6880110639     -1.0972345196     -0.2775405419 
  H24           0.3100113689      0.5986257819     -0.0491940413 
  H25           0.7394141392     -0.3837210819      1.3454283025 
  H26           2.3792240479      0.6088905166     -2.1506222203 
  H27           2.1809921548     -1.1108392253     -1.8154415583 
  H28           4.9256153054     -1.7344177506     -1.6044414853 
  H29           5.6044818633     -0.3060910923     -1.2193187716 
  H30           5.8451985729     -0.4040553941     -3.5566023108 
  H31           3.7045697786     -2.4898635035     -3.7923796354 
  H32           1.7266155285     -2.9546118416     -5.1705922817 
  H33           1.4074624408      1.2338134507     -6.1354356880 
  H34           2.6487660230      2.8006593013     -4.7370653878 
  H35           4.2203597154      2.3865015298     -5.3779231289 
  H36           3.3989087707      2.9927811945     -2.6383670302 
  H37           4.9949815804      3.0220733447     -3.3309704888 
  H38           5.6679697644      1.4833152091     -2.0315021281 
  H39           3.5016205433     -1.3511460416     -0.3477367537 
  H40           5.5518960768     -0.8762844905      0.9131262186 
  H41           4.0754319731     -0.9726581829      1.8319855064 
  H42           5.1153392789      1.6726649742      0.7837847827 
  H43           4.6887433282      1.3859111463      2.4631751163 
  H44           2.2728819260      4.7742825882     -0.4119057983 
  H45           2.3097877273      0.4019859373      2.7110786383 
  H46           0.1328702104     -2.0235600131     -6.6218127636 
   
 The C2-C3-C15-C16 torsion has become linear.  (coord   14)
  
  Change in internal coords is being performed
  for a more optimal set.
  Invalidating history between points   1  and   2

  detected            2  molecular fragments
 
Number of optimization coordinates:   174
Number of independent coordinates:    174
Number of non-redundant coordinates:  132
Number of frozen coordinates:           0
Number of harmonic constraints:         0
 
Number of geometric degrees of freedom:   132
Maximum geometric degrees of freedom:     132
 " " " " " excluding dummy atoms:         132
 
  nuclear repulsion energy.......    1846.197605394 hartrees
  -------------------------------------------------
 /  end of geometry optimization iteration   3   /
 -------------------------------------------------
   
  Peak memory usage:   4732 Mb
  
  end of program geopt
   
 Time(geopt)  user:       10.9  user+sys:       10.9  wallclock:        0.8
  
  start of program onee
  
  smallest eigenvalue of S:    4.898E-04
  number of canonical orbitals.....          245
  Peak memory usage:   4838 Mb
  
  end of program onee
   
 Time(onee)  user:        2.2  user+sys:        2.2  wallclock:        0.5
  
  start of program probe
  
  Peak memory usage:   4756 Mb
  
  end of program probe
   
 Time(probe)  user:        2.2  user+sys:        2.2  wallclock:        0.4
  
  start of program grid
  
   grid     grid set  grid #  grid sym
  ------    --------  ------  --------
  coarse        0        0        1
  medium        2        1        1
  fine          0        0        1
  ultrafine     4        2        1
  charge       -1        3        1
  gradient      4        2        1
  density       0        0        1
  DFT-fine    -11        4        1
  DFT-med.    -10        5        1
  DFT-grad    -12        6        1
  DFT-der2      0        0        1
  DFT-cphf      0        0        1
  LMP2-enrg     4        2        1
  LMP2-grad     2        1        1
  DFT-cphf2     0        0        1
  PBF-dens      0        0        1
  plotting      0        0        1
  Rel-grad    -17        0        1
  
  number of gridpoints: 
     atom        C1       C2       C3       C4       C5       C6       C7
  grid # 1       79       98       85       86       92      101       96
  grid # 2      267      358      293      306      312      366      335
  grid # 3        6        9        6        6        9       97      130
  grid # 4     4304     4304     4304     4304     4304     4304     4304
  grid # 5     1192     1192     1192     1192     1192     1192     1192
  grid # 6     5226     5226     5226     5226     5226     5226     5226
   
  number of gridpoints: 
     atom        C8       C9      C10      C11      C12      C13      C14
  grid # 1       96       97       96       98       87       86       96
  grid # 2      334      353      333      360      288      300      348
  grid # 3      173      213      189       77        6        6       13
  grid # 4     4304     4304     4304     4304     4304     4304     4304
  grid # 5     1192     1192     1192     1192     1192     1192     1192
  grid # 6     5226     5226     5226     5226     5226     5226     5226
   
  number of gridpoints: 
     atom       C15      C16      C17      C18      C19      C20      O21
  grid # 1       92       86       85       96      104      100      112
  grid # 2      331      291      288      340      406      387      426
  grid # 3        6        6        6        6      236      511      576
  grid # 4     4304     4304     4304     4304     4304     4304     4304
  grid # 5     1192     1192     1192     1192     1192     1192     1192
  grid # 6     5226     5226     5226     5226     5226     5226     5226
   
  number of gridpoints: 
     atom       O22      H23      H24      H25      H26      H27      H28
  grid # 1      114      105      106      106      104      102      104
  grid # 2      428      429      437      423      414      414      419
  grid # 3      818      848      955      787      312      349      607
  grid # 4     4304     4304     4304     4304     4304     4304     4304
  grid # 5     1192     1192     1192     1192     1192     1192     1192
  grid # 6     5226     5226     5226     5226     5226     5226     5226
   
  number of gridpoints: 
     atom       H29      H30      H31      H32      H33      H34      H35
  grid # 1       99      112      114      117      116      107      110
  grid # 2      415      445      437      442      441      431      444
  grid # 3      314      993      817     1099     1062      768     1003
  grid # 4     4304     4304     4304     4304     4304     4304     4304
  grid # 5     1192     1192     1192     1192     1192     1192     1192
  grid # 6     5226     5226     5226     5226     5226     5226     5226
   
  number of gridpoints: 
     atom       H36      H37      H38      H39      H40      H41      H42
  grid # 1      107      108      107       97      111      108      107
  grid # 2      418      431      420      408      428      425      432
  grid # 3      415      851      563      348      857      720      627
  grid # 4     4304     4304     4304     4304     4304     4304     4304
  grid # 5     1192     1192     1192     1192     1192     1192     1192
  grid # 6     5226     5226     5226     5226     5226     5226     5226
   
  number of gridpoints: 
     atom       H43      H44      H45      H46    total
  grid # 1      112      119      109      113     4682
  grid # 2      442      460      426      449    17780
  grid # 3     1023     1558      700     1289    21970
  grid # 4     4304     4304     4304     4304   197984
  grid # 5     1192     1192     1192     1192    54832
  grid # 6     5226     5226     5226     5226   240396
   
  Peak memory usage:   4790 Mb
  
  end of program grid
   
 Time(grid)  user:       35.3  user+sys:       35.3  wallclock:        2.7
  
  start of program rwr
  
  Peak memory usage:   4745 Mb
  
  end of program rwr
   
 Time(rwr)  user:       59.1  user+sys:       59.1  wallclock:        5.6
  
  start of program scf
  
 Energy computed with NOPS off.
  
       i  u  d  i  g                   
       t  p  i  c  r                                 RMS    maximum
       e  d  i  u  i                       energy  density   DIIS  
       r  t  s  t  d       total energy    change  change    error 
  
etot    1  N  N  2  U    -925.89866009740           8.0E-04  6.2E-03
etot    2  Y  Y  6  M    -925.91067401348  1.2E-02  2.7E-04  1.8E-03
etot    3  N  Y  2  U    -925.91084956524  1.8E-04  1.3E-04  2.0E-03
etot    4  Y  Y  6  M    -925.91131522447  4.7E-04  4.5E-05  5.2E-04
etot    5  N  Y  2  U    -925.91132316505  7.9E-06  2.7E-05  2.4E-04
etot    6  N  Y  2  U    -925.91133614267  1.3E-05  1.7E-05  1.1E-04
etot    7  N  Y  2  U    -925.91133911020  3.0E-06  8.0E-06  1.6E-04
etot    8  N  Y  2  U    -925.91133998757  8.8E-07  4.1E-06  8.6E-05
etot    9  N  N  2  U    -925.91134030358  3.2E-07  0.0E+00  0.0E+00
  
  
 Energy components, in hartrees:
   (A)  Nuclear repulsion............    1846.19760539447
   (E)  Total one-electron terms.....   -4901.79658996680
   (I)  Total two-electron terms.....    2129.68764426875
   (L)  Electronic energy............   -2772.10894569804  (E+I)
   (N)  Total energy.................    -925.91134030358  (A+L)
   (O)  Gas phase energy.............    -925.91134030358
  
                                 Total             Coulomb       Exchange+Corr.
 Total two-electron terms    2129.68764426875    2263.92151337129    -134.23386910254
   Hamiltonian  1........    1091.32972422632    1139.10971737154     -47.77999314522
   Hamiltonian  2........    1077.39925087170    1124.81179599975     -47.41254512805
  
 SCFE: SCF energy: UDFT(b3lyp)      -925.91134030358 hartrees   iterations:   9
  
 
 Alpha HOMO energy:    -0.32988
 Alpha LUMO energy:    -0.20878
 
  Alpha Orbital energies (hartrees): 
   -19.28204   -19.27339   -10.43008   -10.42221   -10.41847   -10.41286
   -10.37936   -10.37043   -10.36142   -10.35651   -10.34779   -10.32792
   -10.32113   -10.31233   -10.30998   -10.30937   -10.30837   -10.29989
   -10.29974   -10.29767   -10.29518   -10.29073    -1.17005    -1.16602
    -1.08169    -1.01589    -0.96882    -0.95180    -0.90951    -0.89764
    -0.86994    -0.86037    -0.85535    -0.83010    -0.80963    -0.80515
    -0.76265    -0.75217    -0.74621    -0.72429    -0.69996    -0.69044
    -0.66526    -0.65757    -0.64947    -0.63988    -0.63311    -0.61389
    -0.60856    -0.60502    -0.59489    -0.58095    -0.57572    -0.57088
    -0.55914    -0.55454    -0.54861    -0.54406    -0.52897    -0.52493
    -0.51287    -0.51091    -0.50422    -0.50006    -0.49177    -0.48827
    -0.47988    -0.46990    -0.44940    -0.44674    -0.43876    -0.43298
    -0.41753    -0.41317    -0.40330    -0.38712    -0.36669    -0.36014
    -0.35756    -0.32988    -0.20878    -0.20449    -0.13386    -0.11722
    -0.10916    -0.10076    -0.08170    -0.06067    -0.05040    -0.04772
 
 
 Beta HOMO energy:    -0.33212
 Beta LUMO energy:    -0.22904
 
  Beta Orbital energies (hartrees): 
   -19.28205   -19.27331   -10.43037   -10.42055   -10.41849   -10.41257
   -10.37952   -10.37045   -10.36131   -10.34822   -10.34144   -10.32789
   -10.32104   -10.31222   -10.31004   -10.30862   -10.30829   -10.29995
   -10.29974   -10.29764   -10.29517   -10.29075    -1.17006    -1.16584
    -1.07917    -1.01077    -0.96707    -0.95102    -0.90791    -0.89736
    -0.86944    -0.85883    -0.85125    -0.82931    -0.80756    -0.80227
    -0.75876    -0.74793    -0.74323    -0.72379    -0.69810    -0.68523
    -0.66274    -0.65548    -0.64693    -0.63866    -0.63229    -0.61308
    -0.60745    -0.60288    -0.59402    -0.57875    -0.57424    -0.56842
    -0.55781    -0.55394    -0.54767    -0.54261    -0.52771    -0.52239
    -0.51156    -0.51058    -0.50041    -0.49925    -0.48965    -0.48200
    -0.47868    -0.46832    -0.44831    -0.44318    -0.43580    -0.43228
    -0.41639    -0.40637    -0.40173    -0.38697    -0.36355    -0.35873
    -0.33212    -0.22904    -0.20889    -0.19368    -0.13147    -0.11646
    -0.10810    -0.09974    -0.08076    -0.05925    -0.04742
 
  
  
    Unrestricted Spin Properties ...
    Sz*(Sz+1)      0.750
    <S**2> ...     0.755
  
  
  Peak memory usage:   6749 Mb
  
  end of program scf
   
 Time(scf)  user:      230.8  user+sys:      230.8  wallclock:       16.3
  
  start of program der1a
  
  Peak memory usage:   4838 Mb
  
  end of program der1a
   
 Time(der1a)  user:        1.7  user+sys:        1.7  wallclock:        0.5
  
  start of program rwr
  
  Peak memory usage:   4748 Mb
  
  end of program rwr
   
 Time(rwr)  user:       45.8  user+sys:       45.8  wallclock:        6.1
  
  start of program der1b
  
   
  forces (hartrees/bohr) : total     
   
 atom  label           x              y              z
 ---- --------   -------------  -------------  -------------
    1 C1         -3.367825E-03  -9.624052E-03   1.401414E-03
    2 C2          2.736007E-02   1.109665E-02   2.465623E-02
    3 C3         -3.350161E-02   5.613475E-02  -3.672967E-02
    4 C4          7.978310E-02  -3.042575E-02   5.739521E-02
    5 C5         -3.709292E-02  -6.038969E-03   2.590132E-02
    6 C6          3.816936E-03  -4.080082E-04  -5.060365E-03
    7 C7          6.604374E-04   2.479392E-03   1.110920E-03
    8 C8          3.899628E-03  -3.146422E-03   1.085750E-03
    9 C9         -3.243336E-04   9.251965E-04  -3.955105E-03
   10 C10         1.685943E-03   1.337940E-03   3.522549E-03
   11 C11        -1.656521E-03  -1.617878E-03   6.668623E-04
   12 C12         4.378074E-03  -1.821119E-03   2.472857E-03
   13 C13        -1.248041E-02   1.479260E-03   2.100835E-02
   14 C14         5.311506E-02   1.069498E-01  -1.424894E-01
   15 C15        -6.962349E-02  -2.174856E-01   3.695974E-02
   16 C16         7.634589E-03   3.296959E-02  -3.056473E-03
   17 C17         1.064588E-02   7.031435E-03   1.131454E-03
   18 C18        -4.465163E-03   5.437858E-02  -2.662475E-03
   19 C19         1.473506E-03  -3.682248E-03   2.056797E-03
   20 C20        -2.868690E-04   1.848958E-03  -7.597351E-03
   21 O21        -3.952173E-03  -5.517571E-03  -1.594191E-03
   22 O22         1.218585E-04  -1.512322E-03   1.961338E-03
   23 H23         4.117043E-03  -7.041981E-04   1.729807E-03
   24 H24        -1.404081E-04  -4.935245E-04   2.296119E-03
   25 H25         3.381434E-03   6.017871E-04   2.103926E-04
   26 H26         2.906474E-02   6.991568E-04  -6.219831E-03
   27 H27         9.249783E-03  -7.388367E-03   1.173876E-02
   28 H28        -3.806095E-02  -1.579266E-02  -1.291938E-02
   29 H29        -3.573889E-02  -1.310593E-02  -2.816707E-02
   30 H30         4.581482E-03   1.714927E-02  -2.185164E-03
   31 H31         6.306071E-04  -7.637096E-04  -2.142229E-03
   32 H32        -1.230433E-03  -1.243323E-04  -2.119671E-03
   33 H33        -4.060221E-04  -1.609869E-03  -4.245423E-04
   34 H34         1.352990E-03  -2.257618E-03  -3.247739E-04
   35 H35         1.279899E-03  -7.824286E-04   2.496487E-03
   36 H36        -2.110331E-03   3.247049E-03   6.457573E-03
   37 H37         1.058669E-03  -3.325110E-03   5.067527E-03
   38 H38        -5.776541E-03  -4.759393E-03   2.513397E-02
   39 H39         1.756024E-02   1.576800E-02   2.670606E-02
   40 H40         4.792382E-03   1.563290E-02  -6.687630E-04
   41 H41        -6.860016E-03  -3.845855E-03  -1.540744E-02
   42 H42        -4.668550E-03   6.138092E-03   1.003165E-04
   43 H43        -6.428116E-03   1.404216E-03   2.226856E-03
   44 H44         4.315556E-04  -2.591065E-04   6.503721E-03
   45 H45        -3.542119E-04  -1.200917E-04   4.397142E-03
   46 H46        -3.748968E-03  -2.866393E-04  -3.196001E-03
 -------------   -------------  -------------  -------------
     total       -1.988502E-04   3.731957E-04  -5.243613E-04
   
  Peak memory usage:   6743 Mb
  
  end of program der1b
   
 Time(der1b)  user:       62.2  user+sys:       62.2  wallclock:        4.4
  
  start of program geopt
  
 ----------------------------------------------------------------------------
  Geometry optimization step  4
  Total energy:      -925.91134030358 hartrees
 ----------------------------------------------------------------------------
  detected            2  molecular fragments
  detected            2  molecular fragments
  
  
  Level shifts adjusted to satisfy step-size constraints
   Step size:    0.3004522
   Cos(theta):   0.9958871
   Final level shift:  -7.2356179E-01
  
  energy change:          -7.3945E-02 .  (  5.0000E-05 )
  gradient maximum:        9.6582E-02 .  (  4.5000E-04 )
  gradient rms:            1.7932E-02 .  (  3.0000E-04 )
  displacement maximum:    1.2445E-01 .  (  1.8000E-03 )
  displacement rms:        2.2772E-02 .  (  1.2000E-03 )
  
  predicted energy change:  -6.8034E-02
  step size:     0.30038
  trust radius:  0.30000
  
  molecular structure not yet converged...
  
  center of mass moved by:
     x:    -8.9884E-03     y:    -7.1941E-03     z:     8.2912E-03
  
  new geometry: 
                                   angstroms
  atom               x                 y                 z
  C1            0.9766135707     -0.2165491349      0.3123471146 
  C2            2.3969827116      0.2849386696      0.0530013504 
  C3            2.7624674083     -0.1802085840     -1.4892735984 
  C4            4.6431826264     -0.7196338249     -1.9033572196 
  C5            4.8281539767     -0.0966532574     -3.2310950074 
  C6            3.6890077184     -0.3731861872     -4.1870291062 
  C7            3.1934335393     -1.6818043911     -4.3392386385 
  C8            2.0742716041     -1.9420525667     -5.1283406357 
  C9            1.4607028075     -0.8859261863     -5.8151730172 
  C10           1.9424766452      0.4193771027     -5.6840894535 
  C11           3.0445242810      0.6854013934     -4.8623130603 
  C12           3.5279123498      2.1016155307     -4.6736030334 
  C13           4.1643488450      2.4039207377     -3.2801871463 
  C14           4.6594487051      1.1851757018     -2.3265899408 
  C15           3.7443273386     -0.2442128272     -0.1740331517 
  C16           4.6281032456     -0.3367626628      1.1032946549 
  C17           4.4314115920      1.1401947273      1.4793624652 
  C18           2.8999508289      1.4202015499      1.1544300579 
  C19           2.6426679456      2.7875843283      0.6957828593 
  C20           2.3957952998      3.8833366184      0.2391436692 
  O21           2.1313221114      1.2391995974      2.3640392475 
  O22           0.3662839695     -1.0678588950     -6.6384300283 
  H23           0.6998375534     -1.0876609606     -0.2919789549 
  H24           0.3209779636      0.6025799613     -0.0115236986 
  H25           0.7381123678     -0.4204244306      1.3562290607 
  H26           2.4795051099      0.6602234999     -2.1242136731 
  H27           2.2233700625     -1.0648258558     -1.8114690685 
  H28           4.8813957754     -1.7617289152     -1.6184280095 
  H29           5.5658513440     -0.3134809282     -1.2445328996 
  H30           5.8245285150     -0.3928662035     -3.5834945221 
  H31           3.6683410738     -2.5033974177     -3.8095842848 
  H32           1.6966201598     -2.9567918599     -5.2047197000 
  H33           1.4317007133      1.2259057490     -6.1981669816 
  H34           2.6980956196      2.8000760674     -4.8391807069 
  H35           4.2668575218      2.3335027310     -5.4555186003 
  H36           3.4725588431      3.0527499550     -2.7384063345 
  H37           5.0633026922      3.0153875104     -3.4423769803 
  H38           5.6852814881      1.4938456943     -2.0787360949 
  H39           3.5072005798     -1.3810259828     -0.3004760045 
  H40           5.5982357338     -0.8209752776      0.9487793799 
  H41           4.1192838134     -0.9583079467      1.8586069693 
  H42           5.0749031507      1.7346462075      0.8227034004 
  H43           4.6788936094      1.4187804859      2.5053300988 
  H44           2.1817231723      4.8047700132     -0.2562913524 
[...]
  Rel-grad    -17        0        1
  
  number of gridpoints: 
     atom        C1       C2       C3       C4       C5       C6       C7
  grid # 1       79      100       86       86       90      100       96
  grid # 2      261      361      293      291      316      360      335
  grid # 3        6       24        6        6        7       74      130
  grid # 4     4304     4304     4304     4304     4304     4304     4304
  grid # 5     1192     1192     1192     1192     1192     1192     1192
  grid # 6     5226     5226     5226     5226     5226     5226     5226
   
  number of gridpoints: 
     atom        C8       C9      C10      C11      C12      C13      C14
  grid # 1       96       98       97       98       86       85       95
  grid # 2      333      354      335      363      288      285      333
  grid # 3      197      224      207      112        6        6       37
  grid # 4     4304     4304     4304     4304     4304     4304     4304
  grid # 5     1192     1192     1192     1192     1192     1192     1192
  grid # 6     5226     5226     5226     5226     5226     5226     5226
   
  number of gridpoints: 
     atom       C15      C16      C17      C18      C19      C20      O21
  grid # 1       92       86       84       96      102      100      113
  grid # 2      317      292      292      329      395      388      428
  grid # 3        6        6        6        8      170      533      452
  grid # 4     4304     4304     4304     4304     4304     4304     4304
  grid # 5     1192     1192     1192     1192     1192     1192     1192
  grid # 6     5226     5226     5226     5226     5226     5226     5226
   
  number of gridpoints: 
     atom       O22      H23      H24      H25      H26      H27      H28
  grid # 1      114      105      107      108      107      103      106
  grid # 2      425      429      433      437      420      415      416
  grid # 3      788      750      867     1010      356      314      488
  grid # 4     4304     4304     4304     4304     4304     4304     4304
  grid # 5     1192     1192     1192     1192     1192     1192     1192
  grid # 6     5226     5226     5226     5226     5226     5226     5226
   
  number of gridpoints: 
     atom       H29      H30      H31      H32      H33      H34      H35
  grid # 1      105      110      110      118      116      109      110
  grid # 2      415      434      431      443      441      435      446
  grid # 3      485      873      750     1125     1069      839     1031
  grid # 4     4304     4304     4304     4304     4304     4304     4304
  grid # 5     1192     1192     1192     1192     1192     1192     1192
  grid # 6     5226     5226     5226     5226     5226     5226     5226
   
  number of gridpoints: 
     atom       H36      H37      H38      H39      H40      H41      H42
  grid # 1      109      111      114      113      107      110      109
  grid # 2      436      442      442      430      425      440      436
  grid # 3      739     1019     1001      669      663      865      731
  grid # 4     4304     4304     4304     4304     4304     4304     4304
  grid # 5     1192     1192     1192     1192     1192     1192     1192
  grid # 6     5226     5226     5226     5226     5226     5226     5226
   
  number of gridpoints: 
     atom       H43      H44      H45      H46    total
  grid # 1      111      120      112      113     4722
  grid # 2      440      466      447      450    17823
  grid # 3     1022     1816     1147     1329    23969
  grid # 4     4304     4304     4304     4304   197984
  grid # 5     1192     1192     1192     1192    54832
  grid # 6     5226     5226     5226     5226   240396
   
  Peak memory usage:   4790 Mb
  
  end of program grid
   
 Time(grid)  user:       27.2  user+sys:       27.2  wallclock:        2.3
  
  start of program rwr
  
  Peak memory usage:   4745 Mb
  
  end of program rwr
   
 Time(rwr)  user:       49.9  user+sys:       49.9  wallclock:        4.8
  
  start of program scf
  
 Energy computed with NOPS off.
  
       i  u  d  i  g                   
       t  p  i  c  r                                 RMS    maximum
       e  d  i  u  i                       energy  density   DIIS  
       r  t  s  t  d       total energy    change  change    error 
  
etot    1  N  N  2  U    -926.37912204388           4.5E-05  5.3E-04
etot    2  N  Y  2  U    -926.37919900249  7.7E-05  1.9E-05  2.6E-04
etot    3  N  Y  2  U    -926.37919446427 -4.5E-06  2.7E-05  6.2E-04
etot    4  N  Y  2  U    -926.37919653217  2.1E-06  1.6E-05  8.6E-04
etot    5  N  Y  2  U    -926.37920123230  4.7E-06  1.6E-06  3.4E-05
etot    6  N  N  2  U    -926.37920126099  2.9E-08  0.0E+00  0.0E+00
  
  
 Energy components, in hartrees:
   (A)  Nuclear repulsion............    1738.64376266690
   (E)  Total one-electron terms.....   -4689.32981935185
   (I)  Total two-electron terms.....    2024.30685542396
   (L)  Electronic energy............   -2665.02296392789  (E+I)
   (N)  Total energy.................    -926.37920126099  (A+L)
   (O)  Gas phase energy.............    -926.37920126099
  
                                 Total             Coulomb       Exchange+Corr.
 Total two-electron terms    2024.30685542396    2158.66371118757    -134.35685576361
   Hamiltonian  1........    1037.95490336378    1085.76100234782     -47.80609898404
   Hamiltonian  2........    1025.42861713865    1072.90270883975     -47.47409170110
  
 SCFE: SCF energy: UDFT(b3lyp)      -926.37920126099 hartrees   iterations:   6
  
 
 Alpha HOMO energy:    -0.30252
 Alpha LUMO energy:    -0.27248
 
  Alpha Orbital energies (hartrees): 
   -19.28834   -19.26519   -10.40737   -10.39456   -10.35207   -10.35179
   -10.33987   -10.33446   -10.32944   -10.32658   -10.32508   -10.31697
   -10.31476   -10.31276   -10.30822   -10.30543   -10.30450   -10.30193
   -10.29813   -10.29715   -10.29009   -10.28191    -1.16100    -1.15514
    -1.00439    -0.98745    -0.94411    -0.92364    -0.90697    -0.90077
    -0.87495    -0.85704    -0.84325    -0.82652    -0.81095    -0.77260
    -0.74603    -0.73151    -0.72234    -0.70849    -0.69650    -0.67698
    -0.66615    -0.63623    -0.63463    -0.62534    -0.60633    -0.60557
    -0.59687    -0.58765    -0.57942    -0.57221    -0.56020    -0.55311
    -0.54074    -0.53511    -0.53361    -0.52610    -0.52544    -0.51566
    -0.50725    -0.50331    -0.50176    -0.49199    -0.48756    -0.48402
    -0.47920    -0.47586    -0.46201    -0.45792    -0.45267    -0.44219
    -0.42984    -0.42410    -0.42001    -0.40375    -0.39571    -0.35065
    -0.32163    -0.30252    -0.27248    -0.10699    -0.09864    -0.09635
    -0.08041    -0.04983    -0.03454    -0.02911    -0.02273    -0.01825
 
 
 Beta HOMO energy:    -0.32104
 Beta LUMO energy:    -0.22573
 
  Beta Orbital energies (hartrees): 
   -19.28729   -19.26541   -10.40781   -10.38809   -10.35224   -10.34209
   -10.34047   -10.33538   -10.32901   -10.32584   -10.32555   -10.31690
   -10.31470   -10.31347   -10.30821   -10.30539   -10.30457   -10.30192
   -10.29768   -10.29729   -10.29002   -10.28195    -1.15856    -1.15561
    -0.99895    -0.98383    -0.94058    -0.92099    -0.90391    -0.90008
    -0.87359    -0.85435    -0.84245    -0.82430    -0.80824    -0.77000
    -0.74463    -0.72804    -0.72068    -0.70713    -0.69503    -0.67357
    -0.66278    -0.63511    -0.63399    -0.62289    -0.60402    -0.60345
    -0.59378    -0.58333    -0.57807    -0.56906    -0.55676    -0.55222
    -0.53937    -0.53381    -0.53281    -0.52475    -0.52340    -0.51515
    -0.50459    -0.50259    -0.50072    -0.49017    -0.48639    -0.48178
    -0.47847    -0.47456    -0.46154    -0.45699    -0.45126    -0.44134
    -0.42935    -0.42098    -0.42059    -0.40304    -0.39456    -0.35071
    -0.32104    -0.22573    -0.19684    -0.10730    -0.09683    -0.09616
    -0.07901    -0.04940    -0.03339    -0.02852    -0.02280
 
  
  
    Unrestricted Spin Properties ...
    Sz*(Sz+1)      0.750
    <S**2> ...     0.793
  
  
  Peak memory usage:   6749 Mb
  
  end of program scf
   
 Time(scf)  user:      169.0  user+sys:      169.0  wallclock:       12.1
  
  start of program der1a
  
  Peak memory usage:   4838 Mb
  
  end of program der1a
   
 Time(der1a)  user:        1.5  user+sys:        1.5  wallclock:        0.5
  
  start of program rwr
  
  Peak memory usage:   4748 Mb
  
  end of program rwr
   
 Time(rwr)  user:       41.8  user+sys:       41.8  wallclock:        5.9
  
  start of program der1b
  
   
  forces (hartrees/bohr) : total     
   
 atom  label           x              y              z
 ---- --------   -------------  -------------  -------------
    1 C1          3.995075E-05   7.664206E-06  -2.560282E-05
    2 C2          1.805153E-06  -3.826913E-05  -5.668932E-05
    3 C3          4.607956E-05  -6.153255E-05  -1.271273E-04
    4 C4         -3.352824E-05  -1.821818E-05   9.327103E-06
    5 C5          1.375029E-05  -6.282673E-05  -9.550097E-05
    6 C6         -2.300209E-05   1.304032E-05  -8.125547E-06
    7 C7         -1.521039E-05  -1.436885E-05  -1.720918E-05
    8 C8         -8.715486E-06  -1.982861E-05  -1.194773E-05
    9 C9         -3.658093E-05  -7.829957E-06  -3.785353E-05
   10 C10        -1.630457E-05   2.065427E-05  -1.766233E-05
   11 C11         9.536916E-06  -1.753195E-05  -2.595379E-05
   12 C12        -6.845349E-06  -7.385458E-07  -1.383892E-05
   13 C13         3.999109E-05  -3.735387E-05  -6.332678E-05
   14 C14        -9.447342E-05   1.677010E-05   7.949316E-05
   15 C15         1.568324E-05   7.447502E-06   5.789531E-05
   16 C16         2.671961E-05  -7.680420E-05  -4.403035E-05
   17 C17         2.707916E-05  -7.028478E-05   2.387502E-05
   18 C18        -1.223105E-06  -5.398269E-05  -2.276910E-05
   19 C19         1.734992E-05  -7.016888E-05   2.009610E-05
   20 C20         4.654717E-05  -2.773374E-05   1.459079E-05
   21 O21         3.113581E-05  -5.417125E-05  -1.070997E-06
   22 O22        -3.294767E-05   1.327903E-05  -1.305841E-05
   23 H23         2.460828E-06  -4.294842E-05   2.700729E-06
   24 H24         2.733126E-05  -4.763069E-05   2.231066E-05
   25 H25         1.596121E-05  -4.442150E-05  -1.154174E-05
   26 H26         7.489075E-06  -2.362343E-05  -4.562954E-06
   27 H27         1.694756E-06  -2.249110E-05   1.502906E-06
   28 H28         1.366990E-05  -3.017905E-05  -3.097018E-05
   29 H29         9.028201E-06  -4.667476E-05  -3.975838E-05
   30 H30        -1.560887E-05  -1.298958E-05  -3.432567E-05
   31 H31        -1.420519E-05  -1.437928E-05  -3.547498E-05
   32 H32        -2.457037E-05   2.531462E-07  -2.672600E-05
   33 H33        -2.047559E-05   1.224019E-05  -8.822135E-06
   34 H34        -1.858748E-05   1.589447E-06  -6.985887E-06
   35 H35        -1.974757E-05  -4.071489E-06  -1.791386E-05
   36 H36        -8.472392E-06  -1.571701E-05   6.291579E-06
   37 H37         5.839992E-06  -9.084388E-06   2.129849E-06
   38 H38         4.525341E-05  -4.067101E-05  -8.134672E-05
   39 H39        -1.475310E-05  -5.028299E-05  -4.851628E-05
   40 H40         9.133443E-06  -4.168260E-05  -3.241031E-05
   41 H41         2.169370E-05  -4.778831E-05  -2.620375E-05
   42 H42         4.921696E-05  -3.499734E-05  -4.114998E-05
   43 H43         5.045810E-05  -4.321755E-05  -2.302832E-05
   44 H44         3.883913E-05  -5.063324E-05   1.668796E-05
   45 H45         5.248324E-05  -4.209851E-05  -1.669940E-05
   46 H46        -3.778741E-05   8.762441E-06  -1.699768E-05
 -------------   -------------  -------------  -------------
     total        2.231426E-04  -1.195526E-03  -8.283001E-04
   
  Peak memory usage:   6743 Mb
  
  end of program der1b
   
 Time(der1b)  user:       58.5  user+sys:       58.5  wallclock:        4.3
  
  start of program geopt
  
 ----------------------------------------------------------------------------
  Geometry optimization step 51
  Total energy:      -926.37920126099 hartrees
 ----------------------------------------------------------------------------
  
  energy change:           1.3885E-05 *  (  5.0000E-05 )
  gradient maximum:        1.1933E-04 *  (  4.5000E-04 )
  gradient rms:            2.0773E-05 #  (  3.0000E-04 )
  displacement maximum:    2.8838E-03 .  (  1.8000E-03 )
  displacement rms:        4.7317E-04 *  (  1.2000E-03 )
  
  predicted energy change:  -3.1731E-07
  step size:     0.00624
  trust radius:  0.30000
  
  ********************************************************
  **           Geometry optimization complete           **
  ********************************************************
  
  Checking the geometry optimization convergence pattern ...
  
  WARNING:
  There were 51 geometry optimization steps,
  which indicates difficult convergence and can be
  symptomatic of potential problems with the initial
  and/or the final (converged) structures.
  
  WARNING:
  The energy on the last optimization iteration,
     -926.379201260989
  is higher than the energy on one of the previous iterations,
     -926.379238140194
  The difference between these two energies is 0.023 kcal/mole.
  This situation is symptomatic of potential problems with the
  initial and/or the converged structures.
  
  best                    worst
  ==0=====1=====2=====3=====4==
                      ^        
  
  Convergence category 3: convergence to a non-optimal structure.
  The difference between the final and the minimal
  energies is less than 0.100 kcal/mole.
  Geometry optimization was NOT OK.
  
  Number of imaginary frequencies:   0
  
  center of mass moved by:
     x:     0.0000E+00     y:     0.0000E+00     z:     0.0000E+00
  
  final geometry: 
                                   angstroms
  atom               x                 y                 z
  C1            0.7789952927      0.2362265889      0.3200600758 
  C2            2.1973905386      0.3725366926      0.7077526251 
  C3            3.5918631526      0.2475506960     -1.3294067062 
  C4            4.7438717887     -0.4428294094     -2.0605828356 
  C5            4.8882809136      0.0176335934     -3.5889125518 
  C6            3.6670165358     -0.2881442069     -4.4486742529 
  C7            3.0370502820     -1.5430579982     -4.3670315659 
  C8            1.9508979830     -1.8734905074     -5.1775728630 
  C9            1.4754732434     -0.9317928075     -6.0994757436 
  C10           2.0930871620      0.3190854525     -6.2041698550 
  C11           3.1868409140      0.6472254552     -5.3979639413 
  C12           3.8836332408      1.9800220206     -5.5995421936 
  C13           4.5710439674      2.4831893168     -4.3077159751 
  C14           5.3686207222      1.4117469652     -3.6676685832 
  C15           3.3340004786     -0.3769521126      0.1138425558 
  C16           4.5114788847     -0.1606205820      1.1078573528 
  C17           4.2164781572      1.2092653371      1.7576730495 
  C18           2.6789800200      1.2366272814      1.8640935267 
  C19           2.0584463570      2.5437018683      1.9967505172 
  C20           1.5305177524      3.6288455927      2.1178562629 
  O21           2.3486568471      0.3347528021      3.0094554042 
  O22           0.4020415394     -1.1617684668     -6.9380212959 
  H23           0.6688922480      0.0398363234     -0.7529409372 
  H24           0.1883954192      1.1161998352      0.5908466617 
  H25           0.3341268359     -0.6369109851      0.8281943476 
  H26           3.7965744959      1.3212808975     -1.2291237312 
  H27           2.6724817997      0.1428386074     -1.9147111547 
  H28           4.6074183899     -1.5292654637     -2.0576335376 
  H29           5.7005932627     -0.2409882125     -1.5675444133 
  H30           5.7294923705     -0.6239810420     -3.9209085147 
  H31           3.4031826502     -2.2907618570     -3.6705004176 
  H32           1.4883647458     -2.8525074769     -5.0975921184 
  H33           1.7096577453      1.0220552852     -6.9348704508 
  H34           3.1707353946      2.7327701612     -5.9508085772 
  H35           4.6440640146      1.8816402351     -6.3869855564 
  H36           3.7754544675      2.7980102763     -3.5998926166 
  H37           5.1760996319      3.3748796628     -4.4984083534 
  H38           6.3159140586      1.6497862335     -3.1878442104 
  H39           3.0898531022     -1.4354943084     -0.0420064660 
  H40           5.4895543151     -0.1919656684      0.6229711146 
  H41           4.4906876905     -0.9447972662      1.8698628791 
  H42           4.5523376040      2.0389764619      1.1262828223 
  H43           4.6597335142      1.3296438929      2.7477750542 
  H44           1.0782510766      4.5869354890      2.2355327692 
  H45           1.4693889717      0.5649634479      3.3821346021 
  H46           0.0381141418     -2.0641792816     -6.8536606019 
   
  principal moments of inertia:
        amu*angstrom^2:     1078.21085     3707.02435     3940.27987
                g*cm^2: 1.79041102E-37 6.15565799E-37 6.54298784E-37
   
  rotational constants:
               cm^(-1):      0.01563482      0.00454748      0.00427828
                   GHz:      0.46872001      0.13633010      0.12825967
   
  nuclear repulsion energy.......    1738.643762667 hartrees
  -------------------------------------------------
 /  end of geometry optimization iteration  51   /
 -------------------------------------------------
   
  Peak memory usage:   4826 Mb
  
  end of program geopt
   
 Time(geopt)  user:       12.7  user+sys:       12.7  wallclock:        1.2
  
  start of program ch
  
  Moments from quantum mechanical wavefunction:
  Dipole Moments  (Debye)
     X=    -0.0063     Y=     0.7782     Z=     3.5058  Tot=     3.5912
  
  gridpoints used for charge fit        22579
    out of a possible maximum of        23969
  
   Electrostatic potential fitting constrained to reproduce
     total charge:                yes
     dipole moment:               yes
     traceless quadrupole moment: no 
     traceless octapole moment:   no 
  
  Atomic charges from electrostatic potential: 
   
 Atom       C1           C2           C3           C4           C5      
 Charge   -0.40468      0.13982      0.04610     -0.26795      0.12510
   
 Atom       C6           C7           C8           C9           C10     
 Charge   -0.14796     -0.05833     -0.41586      0.57418     -0.41666
   
 Atom       C11          C12          C13          C14          C15     
 Charge    0.15793     -0.10809     -0.04702     -0.04355     -0.06157
   
 Atom       C16          C17          C18          C19          C20     
 Charge   -0.15037     -0.10906      0.54550     -0.23315     -0.22317
   
 Atom       O21          O22          H23          H24          H25     
 Charge   -0.66808     -0.66641      0.15534      0.14244      0.17628
   
 Atom       H26          H27          H28          H29          H30     
 Charge    0.04958      0.03085      0.09423      0.10920      0.08536
   
 Atom       H31          H32          H33          H34          H35     
 Charge    0.14002      0.17843      0.20811      0.07758      0.08085
   
 Atom       H36          H37          H38          H39          H40     
 Charge    0.06451      0.07694      0.10906      0.10708      0.07756
   
 Atom       H41          H42          H43          H44          H45     
 Charge    0.09474      0.05020      0.10443      0.27761      0.46968
   
 Atom       H46     
 Charge    0.47320
  
  sum of atomic charges:     1.000000
   
 RMS Error   6.05E-04 hartrees
 
  
  Moments from electrostatic potential charges:
  Dipole Moments  (Debye)
     X=    -0.0063     Y=     0.7782     Z=     3.5058  Tot=     3.5912
  
  Peak memory usage:   4833 Mb
  
  end of program ch
   
 Time(ch)  user:        6.1  user+sys:        6.1  wallclock:        3.6

 Total cpu seconds     user:   18956.079   user+sys:   18956.079
  
 Total elapsed time:    1769 seconds

Job ethynylestradiol_1 completed on n050 at Sun Jan  8 22:54:10 2017
