Job ethynylestradiol_3 started on n052 at Sun Jan  8 22:24:45 2017
jobid: u01-0-58730271

  +--------------------------------------------------------------------+
  |  Jaguar version 9.3, release  15                                   |
  |                                                                    |
  |  Copyright Schrodinger, Inc.                                       |
  |  All Rights Reserved.                                              |
  |                                                                    |
  |  The following have contributed to Jaguar (listed alphabetically): |
  |  Mike Beachy, Art Bochevarov, Dale Braden, Yixiang Cao,            |
  |  Chris Cortis, Rich Friesner, Bill Goddard, Hod Greeley,           |
  |  Tom Hughes, Leif Jacobson, Jean-Marc Langlois,                    |
  |  Daniel Mainz, Rob Murphy, Dean Philipp,                           |
  |  Tom Pollard, Murco Ringnalda, Mark Watson.                        |
  |                                                                    |
  |  Use of this program should be acknowledged in publications as:    |
  |                                                                    |
  |  Jaguar, version 9.3, Schrodinger, Inc., New York, NY, 2016.       |
  |                                                                    |
  |  A. D. Bochevarov, E. Harder, T. F. Hughes, J. R. Greenwood,       |
  |  D. A. Braden, D. M. Philipp, D. Rinaldo, M. D. Halls,             |
  |  J. Zhang, R. A. Friesner, "Jaguar: A High-Performance Quantum     |
  |  Chemistry Software Program with Strengths in Life and Materials   |
  |  Sciences", Int. J. Quantum Chem., 2013, 113(18), 2110-2142.       |
  +--------------------------------------------------------------------+
  
  start of program pre
  
  Job name: ethynylestradiol_3
  Executables used: /home/applications/Schrodinger_Suites_2016-3/jaguar-v9.3/bin/Linux-x86_64
  Temporary files : /scratch/Schrodinger_Suites/pbeni001/ethynylestradiol_3#u01-0-58730271
  Maestro file (input):  ethynylestradiol_3.mae
  Maestro file (output): ethynylestradiol_3.01.mae
  
  basis set:             6-31g                           
  net molecular charge:    1
  multiplicity:            2
  
  Using up to  16 threads per process
  
  number of basis functions....          246
  
 Input geometry:
                                   angstroms
  atom               x                 y                 z
  C1            0.7184329000      0.0026432000     -0.0351380000 
  C2            2.1969333000      0.2339759000     -0.0222322000 
  C3            2.6203674000      0.7885853000      1.6052349000 
  C4            2.3116106000     -0.1104066000      2.7058728000 
  C5            3.0255881000     -1.4188867000      2.5385899000 
  H6            4.1150046000     -1.3530734000      2.6654913000 
  C7            2.4880844000     -2.3217192000      3.6117172000 
  C8            2.2355773000     -1.7526513000      4.8752207000 
  C9            1.7045237000     -2.4755776000      5.9198015000 
  C10           1.4552567000     -3.8171603000      5.7212070000 
  C11           1.7181159000     -4.4208756000      4.4862534000 
  C12           2.2434516000     -3.6740856000      3.4105335000 
  C13           2.5102594000     -4.2985944000      2.0648359000 
  C14           3.2834171000     -3.3517299000      1.0226400000 
  C15           2.8341473000     -1.7931606000      1.0889690000 
  H16           1.7648971000     -1.9340568000      0.8606813000 
  C17           3.4905743000     -0.3726962000      0.0934652000 
  H18           3.7043306000     -0.9859387000     -0.7904720000 
  C19           3.5047430000      1.6292729000     -0.1770252000 
  C20           2.6327749000      2.0644723000     -1.4340494000 
  C21           2.7752518000      0.6701539000     -1.6713241000 
  C22           2.1424493000     -0.1995609000     -2.6408122000 
  C23           1.9310337000     -1.1933852000     -3.2390571000 
  O24           4.2322525000      0.5414715000     -2.0563064000 
  O25           0.9550290000     -4.5814525000      6.7330578000 
  H26           0.3452539000     -0.5647745000      0.8124538000 
  H27           0.3804575000     -0.4862204000     -0.9437140000 
  H28           0.2396887000      0.9882834000      0.0181567000 
  H29           2.1729390000      1.7405428000      1.8781343000 
  H30           3.7467606000      0.8968738000      1.7373913000 
  H31           1.2289340000     -0.2022695000      2.7368000000 
  H32           2.6934063000      0.4302050000      3.5716010000 
  H33           2.4298233000     -0.7018697000      5.0587908000 
  H34           1.5122032000     -1.9556005000      6.8496133000 
  H35           1.5080778000     -5.4814743000      4.3783954000 
  H36           1.5467462000     -4.6373698000      1.6523274000 
  H37           3.0916653000     -5.2207751000      2.2401716000 
  H38           3.1222230000     -3.8169361000      0.0391171000 
  H39           4.3457655000     -3.4494452000      1.2657939000 
  H40           4.4587033000      2.1547225000     -0.0568058000 
  H41           2.9122447000      2.3471382000      0.4556143000 
  H42           3.1087096000      2.8032537000     -2.0782176000 
  H43           1.5849034000      2.3552836000     -1.2345535000 
  H44           1.8326819000     -2.1563835000     -3.7029166000 
  H45           4.7903195000      1.2706811000     -1.7209587000 
  H46           0.8395405000     -4.0177630000      7.5171088000 
   
  principal moments of inertia:
        amu*angstrom^2:      686.16943     3448.09866     3769.26863
                g*cm^2: 1.13941100E-37 5.72570182E-37 6.25901704E-37
   
  rotational constants:
               cm^(-1):      0.02456774      0.00488896      0.00447239
                   GHz:      0.73652219      0.14656744      0.13407880
   
  Molecular weight:     296.18 amu
   
  Stoichiometry: C20H24O2
  Molecular Point Group: C1      
  Point Group used: C1
  
 
Number of optimization coordinates:   145
Number of independent coordinates:    145
Number of non-redundant coordinates:  132
Number of frozen coordinates:           0
Number of harmonic constraints:         0
 
Number of geometric degrees of freedom:   132
Maximum geometric degrees of freedom:     132
 " " " " " excluding dummy atoms:         132
 
  nuclear repulsion energy.......    1834.009847432 hartrees
 
 Non-default options chosen:
   SCF calculation type: UDFT(b3lyp)                 
   UDFT=Becke_3_Parameter/HF+Slater+Becke88+VWN+LYP (B3LYP)
   Geometry will be optimized in redundant internal coordinates
   Electrostatic potential fit to point charges on atomic centers
   Electrostatic potential fitting constrained to reproduce
     total charge:                yes
     dipole moment:               yes
     traceless quadrupole moment: no 
     traceless octapole moment:   no 
  
 Temporary integer options set:
     73=  2
  
  Peak memory usage:   4803 Mb
  
  end of program pre
   
 Time(pre)  user:        5.6  user+sys:        5.6  wallclock:        0.9
  
  start of program onee
  
  smallest eigenvalue of S:    4.799E-04
  number of canonical orbitals.....          245
  Peak memory usage:   4838 Mb
  
  end of program onee
   
 Time(onee)  user:        3.5  user+sys:        3.5  wallclock:        0.5
  
  start of program hfig
  
  initial wavefunction generated automatically from atomic wavefunctions
  
  -------------------
  Alpha orbital space
  -------------------
 
  Irreducible     Total no   No of occupied orbitals 
  representation  orbitals   Shell_1  Shell_2    ...
  No Symm          245         80
  ------------------------
  Orbital occupation/shell    1.000
 
  ------------------
  Beta orbital space
  ------------------
 
  Irreducible     Total no   No of occupied orbitals 
  representation  orbitals   Shell_1  Shell_2    ...
  No Symm          245         79
  ------------------------
  Orbital occupation/shell    1.000
 
  
  
    Unrestricted Spin Properties ...
    Sz*(Sz+1) ..............     0.750
    <S**2> of initial guess      0.750
  
  
  Peak memory usage:   4756 Mb
  
  end of program hfig
   
 Time(hfig)  user:        4.3  user+sys:        4.3  wallclock:        0.7
  
  start of program probe
  
  Peak memory usage:   4756 Mb
  
  end of program probe
   
 Time(probe)  user:        3.1  user+sys:        3.1  wallclock:        0.5
  
  start of program grid
  
   grid     grid set  grid #  grid sym
  ------    --------  ------  --------
  coarse        0        0        1
  medium        2        1        1
  fine          0        0        1
  ultrafine     4        2        1
  charge       -1        3        1
  gradient      4        2        1
  density       0        0        1
  DFT-fine    -11        4        1
  DFT-med.    -10        5        1
  DFT-grad    -12        6        1
  DFT-der2      0        0        1
  DFT-cphf      0        0        1
  LMP2-enrg     4        2        1
  LMP2-grad     2        1        1
  DFT-cphf2     0        0        1
  PBF-dens      0        0        1
  plotting      0        0        1
  Rel-grad    -17        0        1
  
  number of gridpoints: 
     atom        C1       C2       C3       C4       C5       H6       C7
  grid # 1       79       96       81       81       89      109       96
  grid # 2      261      340      294      279      308      428      359
  grid # 3        6        6        6        6        6      688       87
  grid # 4     4304     4304     4304     4304     4304     4304     4304
  grid # 5     1192     1192     1192     1192     1192     1192     1192
  grid # 6     5226     5226     5226     5226     5226     5226     5226
   
  number of gridpoints: 
     atom        C8       C9      C10      C11      C12      C13      C14
  grid # 1       95       95       97       97       97       86       85
  grid # 2      336      335      351      336      361      293      296
  grid # 3      160      220      238      212      135        6        6
  grid # 4     4304     4304     4304     4304     4304     4304     4304
  grid # 5     1192     1192     1192     1192     1192     1192     1192
  grid # 6     5226     5226     5226     5226     5226     5226     5226
   
  number of gridpoints: 
     atom       C15      H16      C17      H18      C19      C20      C21
  grid # 1       96      100       92      102       86       83       96
  grid # 2      329      405      345      407      297      289      337
  grid # 3        6      243       69      452        6        8        9
  grid # 4     4304     4304     4304     4304     4304     4304     4304
  grid # 5     1192     1192     1192     1192     1192     1192     1192
  grid # 6     5226     5226     5226     5226     5226     5226     5226
   
  number of gridpoints: 
     atom       C22      C23      O24      O25      H26      H27      H28
  grid # 1      103      100      112      114      100      104      106
  grid # 2      394      379      418      427      410      427      424
  grid # 3      306      450      503      832      525      709      740
  grid # 4     4304     4304     4304     4304     4304     4304     4304
  grid # 5     1192     1192     1192     1192     1192     1192     1192
  grid # 6     5226     5226     5226     5226     5226     5226     5226
   
  number of gridpoints: 
     atom       H29      H30      H31      H32      H33      H34      H35
  grid # 1      102      100      106      104      107      116      116
  grid # 2      415      409      417      407      426      439      446
  grid # 3      605      417      534      505      704     1126     1085
  grid # 4     4304     4304     4304     4304     4304     4304     4304
  grid # 5     1192     1192     1192     1192     1192     1192     1192
  grid # 6     5226     5226     5226     5226     5226     5226     5226
   
  number of gridpoints: 
     atom       H36      H37      H38      H39      H40      H41      H42
  grid # 1      110      110      111      110      108       98      112
  grid # 2      438      434      438      436      420      398      442
  grid # 3      892      903      814      840      758      382     1055
  grid # 4     4304     4304     4304     4304     4304     4304     4304
  grid # 5     1192     1192     1192     1192     1192     1192     1192
  grid # 6     5226     5226     5226     5226     5226     5226     5226
   
  number of gridpoints: 
     atom       H43      H44      H45      H46    total
  grid # 1      107      118      109      112     4633
  grid # 2      426      463      420      442    17581
  grid # 3      717     1635      779     1251    21642
  grid # 4     4304     4304     4304     4304   197984
  grid # 5     1192     1192     1192     1192    54832
  grid # 6     5226     5226     5226     5226   240396
   
  Peak memory usage:   4790 Mb
  
  end of program grid
   
 Time(grid)  user:       31.4  user+sys:       31.4  wallclock:        2.8
  
  start of program rwr
  
  Peak memory usage:   4745 Mb
  
  end of program rwr
   
 Time(rwr)  user:       58.3  user+sys:       58.3  wallclock:        5.6
  
  start of program scf
  
 number of electrons..........        159
 number of alpha electrons....         80
 number of beta electrons.....         79
 number of alpha orbitals.....        245
 number of beta orbitals......        245
 number of alpha occupied orb..        80
 number of alpha virtual orb...       165
 number of beta occupied orb...        79
 number of beta virtual orb....       166
 SCF type: UDFT=Becke_3_Parameter/HF+Slater+Becke88+VWN+LYP (B3LYP)
 Energy computed with NOPS off.
  
       i  u  d  i  g                   
       t  p  i  c  r                                 RMS    maximum
       e  d  i  u  i                       energy  density   DIIS  
       r  t  s  t  d       total energy    change  change    error 
  
etot    1  N  N  5  M    -922.67244357939           2.0E-02  9.9E-02
etot    2  Y  Y  6  M    -911.68276994287 -1.1E+01  2.2E-02  6.0E-01
etot    3  Y  Y  6  M    -920.32870977162  8.6E+00  1.8E-02  2.3E-01
etot    4  N  Y  2  U    -923.14792068912  2.8E+00  1.6E-02  9.7E-02
etot    5  Y  Y  6  M    -923.25541345120  1.1E-01  8.6E-03  4.2E-01
etot    6  N  Y  2  U    -925.71375211007  2.5E+00  3.5E-03  3.6E-02
etot    7  Y  Y  6  M    -925.78217802185  6.8E-02  1.5E-03  2.5E-02
etot    8  N  Y  2  U    -925.83550124255  5.3E-02  5.3E-04  8.9E-03
etot    9  Y  Y  6  M    -925.84316491179  7.7E-03  4.4E-04  5.8E-03
etot   10  N  Y  2  U    -925.84798404417  4.8E-03  3.2E-04  3.0E-03
etot   11  Y  Y  6  M    -925.84930100049  1.3E-03  3.2E-04  1.6E-03
etot   12  Y  Y  6  M    -925.84972975211  4.3E-04  2.5E-04  6.2E-04
etot   13  Y  Y  6  M    -925.84987403266  1.4E-04  1.6E-04  7.9E-04
etot   14  Y  Y  6  M    -925.84996785313  9.4E-05  5.9E-05  6.7E-04
etot   15  N  Y  2  U    -925.84996575702 -2.1E-06  1.0E-04  6.8E-04
etot   16  Y  Y  6  M    -925.85005219243  8.6E-05  2.9E-04  5.3E-04
etot   17  Y  Y  6  M    -925.85019341733  1.4E-04  1.4E-04  3.3E-04
etot   18  Y  Y  6  M    -925.85019754012  4.1E-06  4.8E-05  3.5E-04
etot   19  N  Y  2  U    -925.85016322192 -3.4E-05  4.0E-05  2.8E-04
etot   20  N  Y  2  U    -925.85017217357  9.0E-06  6.6E-05  2.7E-04
etot   21  Y  Y  6  M    -925.85018089175  8.7E-06  3.3E-05  1.2E-04
etot   22  N  Y  2  U    -925.85019187380  1.1E-05  1.7E-05  7.0E-05
etot   23  N  Y  2  U    -925.85019332434  1.5E-06  1.8E-05  5.0E-05
etot   24  N  Y  2  U    -925.85019406252  7.4E-07  9.0E-06  3.6E-05
etot   25  N  Y  2  U    -925.85019438179  3.2E-07  2.9E-06  2.3E-05
etot   26  N  N  2  U    -925.85019444054  5.9E-08  0.0E+00  0.0E+00
  
  
 Energy components, in hartrees:
   (A)  Nuclear repulsion............    1834.00984743194
   (E)  Total one-electron terms.....   -4877.81726674301
   (I)  Total two-electron terms.....    2117.95722487053
   (L)  Electronic energy............   -2759.86004187248  (E+I)
   (N)  Total energy.................    -925.85019444054  (A+L)
   (O)  Gas phase energy.............    -925.85019444054
  
                                 Total             Coulomb       Exchange+Corr.
 Total two-electron terms    2117.95722487053    2252.41761254066    -134.46038767013
   Hamiltonian  1........    1085.34173624243    1133.21490424881     -47.87316800639
   Hamiltonian  2........    1071.72082039603    1119.20270829184     -47.48188789581
  
 SCFE: SCF energy: UDFT(b3lyp)      -925.85019444054 hartrees   iterations:  26
  
 
 Alpha HOMO energy:    -0.31658
 Alpha LUMO energy:    -0.24574
 
  Alpha Orbital energies (hartrees): 
   -19.29644   -19.26569   -10.45826   -10.41342   -10.40154   -10.38690
   -10.35670   -10.34912   -10.34673   -10.33880   -10.33579   -10.32855
   -10.32358   -10.30435   -10.30322   -10.30311   -10.29683   -10.29536
   -10.29031   -10.28618   -10.28194   -10.27849    -1.19014    -1.16691
    -1.06588    -0.99396    -0.96525    -0.93348    -0.92654    -0.90916
    -0.88996    -0.87684    -0.84625    -0.84420    -0.82461    -0.76638
    -0.75898    -0.73957    -0.73390    -0.70620    -0.70085    -0.68708
    -0.68063    -0.66163    -0.65609    -0.64419    -0.62973    -0.62278
    -0.60965    -0.60293    -0.58941    -0.57838    -0.57327    -0.56273
    -0.55469    -0.55075    -0.53672    -0.53441    -0.52760    -0.52065
    -0.50986    -0.50641    -0.49107    -0.48140    -0.47994    -0.47706
    -0.46797    -0.45712    -0.44961    -0.44607    -0.43826    -0.43392
    -0.42954    -0.41742    -0.41577    -0.41043    -0.37414    -0.35931
    -0.34474    -0.31658    -0.24574    -0.17974    -0.11975    -0.10411
    -0.08484    -0.08297    -0.06210    -0.05887    -0.04716    -0.04137
 
 
 Beta HOMO energy:    -0.31044
 Beta LUMO energy:    -0.29079
 
  Beta Orbital energies (hartrees): 
   -19.29642   -19.26494   -10.45617   -10.40986   -10.40348   -10.37984
   -10.35410   -10.34901   -10.34640   -10.33758   -10.33586   -10.32774
   -10.32365   -10.30418   -10.30304   -10.30271   -10.29687   -10.29532
   -10.28983   -10.28616   -10.28177   -10.27829    -1.18881    -1.16536
    -1.05798    -0.99238    -0.96287    -0.93057    -0.92351    -0.90776
    -0.88398    -0.87480    -0.84437    -0.84266    -0.82346    -0.76434
    -0.75652    -0.73859    -0.72843    -0.70480    -0.69623    -0.68410
    -0.67939    -0.65723    -0.65361    -0.64212    -0.62856    -0.61668
    -0.60789    -0.60044    -0.58671    -0.57422    -0.57113    -0.56087
    -0.55199    -0.54951    -0.53522    -0.53238    -0.52671    -0.51947
    -0.50828    -0.50167    -0.48813    -0.47946    -0.47867    -0.47459
    -0.46499    -0.45522    -0.44781    -0.44407    -0.43727    -0.43188
    -0.42565    -0.41459    -0.41191    -0.40907    -0.36522    -0.34400
    -0.31044    -0.29079    -0.23254    -0.16414    -0.11769    -0.10257
    -0.08262    -0.08072    -0.05889    -0.05433    -0.04283
 
  
  
    Unrestricted Spin Properties ...
    Sz*(Sz+1)      0.750
    <S**2> ...     0.780
  
  
  Peak memory usage:   6749 Mb
  
  end of program scf
   
 Time(scf)  user:      506.7  user+sys:      506.7  wallclock:       35.2
  
  start of program der1a
  
  Peak memory usage:   4838 Mb
  
  end of program der1a
   
 Time(der1a)  user:        2.3  user+sys:        2.3  wallclock:        0.5
  
  start of program rwr
  
  Peak memory usage:   4745 Mb
  
  end of program rwr
   
 Time(rwr)  user:       45.7  user+sys:       45.7  wallclock:        5.8
  
  start of program der1b
  
   
  forces (hartrees/bohr) : total     
   
 atom  label           x              y              z
 ---- --------   -------------  -------------  -------------
    1 C1         -1.188161E-02   1.138444E-02  -6.982336E-03
    2 C2          1.691953E-02   1.406029E-02   3.925669E-02
    3 C3          2.336832E-03   3.034231E-02   5.642826E-02
    4 C4         -1.309412E-02   4.391656E-03  -1.299067E-03
    5 C5         -3.644515E-03  -5.966745E-03   7.437486E-03
    6 H6          1.253452E-03   9.799211E-03   3.659455E-03
    7 C7          3.054529E-03   2.146774E-03   8.269526E-03
    8 C8          3.269949E-04   7.229331E-03  -1.151331E-03
    9 C9          7.798867E-03   1.854938E-02  -1.753669E-03
   10 C10         8.693050E-04  -1.382598E-02  -9.890834E-03
   11 C11         1.990515E-03  -4.743692E-03  -6.815580E-03
   12 C12        -7.559276E-03  -6.583701E-03   9.812183E-03
   13 C13        -1.971229E-03   8.084153E-03  -4.683129E-03
   14 C14         8.741918E-03   1.556390E-03  -4.297209E-03
   15 C15         3.074459E-02  -5.696939E-02   3.761776E-02
   16 H16         4.956798E-03   1.968339E-02  -8.979119E-03
   17 C17        -3.184889E-02  -1.477529E-01  -5.780953E-03
   18 H18         2.955301E-02   1.447883E-02   6.553149E-04
   19 C19        -2.123135E-02   1.500691E-01   1.598018E-02
   20 C20         5.685372E-03   3.134452E-02  -5.601185E-03
   21 C21        -2.747062E-03  -3.755656E-03  -1.178186E-01
   22 C22         2.175688E-02   6.243503E-02   5.768040E-02
   23 C23        -1.724376E-02  -7.956468E-02  -4.500472E-02
   24 O24        -2.100477E-02  -2.977475E-02  -1.828452E-02
   25 O25        -5.057360E-03  -9.336027E-03   4.834805E-03
   26 H26         2.752535E-03   3.895609E-04   3.939894E-03
   27 H27         3.763820E-04  -2.281576E-03  -5.383381E-03
   28 H28        -4.373981E-03  -9.328669E-04  -1.555789E-03
   29 H29        -8.813300E-03   7.681156E-03  -8.865167E-03
   30 H30        -2.718063E-02   5.863549E-03  -1.126334E-02
   31 H31        -4.561747E-03  -1.038887E-02   1.556483E-02
   32 H32        -6.942707E-03   2.771487E-03   6.776240E-03
   33 H33         5.856147E-04  -2.336792E-03  -4.421798E-04
   34 H34        -1.789780E-03  -4.327632E-03   4.792653E-03
   35 H35         3.711981E-04   1.027095E-03   3.110242E-04
   36 H36         2.384253E-03   2.284769E-03  -4.178442E-03
   37 H37         1.894177E-03   4.878008E-03  -8.107201E-03
   38 H38         2.477462E-03   7.295548E-03  -5.218722E-04
   39 H39         2.913816E-03   3.143828E-03  -2.589926E-03
   40 H40         1.770897E-02  -2.448472E-02  -3.391937E-03
   41 H41         2.248941E-02  -2.244038E-02   7.245737E-03
   42 H42        -1.190334E-03  -4.279300E-03  -8.991939E-03
   43 H43         1.250411E-02   3.659541E-03   9.179219E-03
   44 H44        -4.554123E-03   8.121073E-03  -3.606283E-03
   45 H45        -2.151902E-03   7.795133E-04  -1.214801E-03
   46 H46        -3.580289E-03  -4.131971E-03   8.790209E-03
 -------------   -------------  -------------  -------------
     total        2.378516E-05  -4.276712E-04  -2.226207E-04
   
  Peak memory usage:   6742 Mb
  
  end of program der1b
   
 Time(der1b)  user:       66.8  user+sys:       66.8  wallclock:        4.7
  
  start of program geopt
  
 ----------------------------------------------------------------------------
  Geometry optimization step  1
  Total energy:      -925.85019444054 hartrees
 ----------------------------------------------------------------------------
  
  
  Level shifts adjusted to satisfy step-size constraints
   Step size:    0.3000990
   Cos(theta):   0.8322269
   Final level shift:  -1.4098467E+00
  
  gradient maximum:        2.7257E-01 .  (  4.5000E-04 )
  gradient rms:            6.6835E-02 .  (  3.0000E-04 )
  displacement maximum:    8.3210E-02 .  (  1.8000E-03 )
  displacement rms:        1.5588E-02 .  (  1.2000E-03 )
  
  predicted energy change:  -1.1124E-01
  step size:     0.18770
  trust radius:  0.30000
  
  molecular structure not yet converged...
  
  center of mass moved by:
     x:    -5.3543E-02     y:    -3.1286E-02     z:     3.2398E-03
  
  new geometry: 
                                   angstroms
  atom               x                 y                 z
  C1            0.6988304325      0.2043528011     -0.0439183508 
  C2            2.1929343282      0.3193395734     -0.0163220455 
  C3            2.6765087961      0.8291850487      1.6264471356 
  C4            2.3441044797     -0.0623816151      2.7471725096 
  C5            3.0667763127     -1.3840366573      2.6493057372 
  H6            4.1494430220     -1.3026450428      2.8207968957 
  C7            2.4873840567     -2.3111513133      3.6853641657 
  C8            2.0994623604     -1.7754354063      4.9297979672 
  C9            1.5323786558     -2.5521499365      5.9193691514 
  C10           1.3877189099     -3.9089183057      5.6866760185 
  C11           1.7895870436     -4.4751941136      4.4721023407 
  C12           2.3491333363     -3.6780716502      3.4531467796 
  C13           2.7768578793     -4.2791152939      2.1350301210 
  C14           3.5887394938     -3.2928022306      1.1679594908 
  C15           3.0367648108     -1.7748505038      1.1976471282 
  H16           2.0018831027     -1.9062001278      0.8441302040 
  C17           3.4068833487     -0.4558254031      0.0344195824 
  H18           3.5765617503     -0.9973829384     -0.9035106880 
  C19           3.6355838240      1.6500505280     -0.3026814733 
  C20           2.7286268869      2.0932713175     -1.5372604368 
  C21           2.7119374729      0.6694227691     -1.7245836734 
  C22           1.9286051971     -0.1516926652     -2.6237942032 
  C23           1.5620905624     -1.1342402228     -3.1905710861 
  O24           4.1127564500      0.3878352379     -2.2099242022 
  O25           0.8560955791     -4.7292374445      6.6421651948 
  H26           0.2775387920     -0.3387525108      0.7974916667 
  H27           0.3333466513     -0.2506142456     -0.9606210322 
  H28           0.2944959590      1.2228454341      0.0119455748 
  H29           2.2951578054      1.8097439260      1.9044091431 
  H30           3.8044161388      0.8653517726      1.7353989639 
  H31           1.2591684559     -0.1193616024      2.8076473766 
  H32           2.7510232179      0.4700964148      3.6075089140 
  H33           2.2193339139     -0.7190136236      5.1402049712 
  H34           1.2308092617     -2.0672276891      6.8395795792 
  H35           1.6592114937     -5.5451575576      4.3366724374 
  H36           1.8799049471     -4.6749309636      1.6334565904 
  H37           3.3982372006     -5.1632715905      2.3575359827 
  H38           3.5471674556     -3.7592036179      0.1733736368 
  H39           4.6291472832     -3.3300653286      1.5059588482 
  H40           4.6460032676      2.0738664301     -0.2655673812 
  H41           3.1708141786      2.4490892045      0.3315193773 
  H42           3.2355295755      2.7434305578     -2.2502775170 
  H43           1.7326373464      2.4995554221     -1.2894005987 
  H44           1.3281892529     -2.0800499408     -3.6386893686 
  H45           4.7636362148      1.0615191358     -1.9309930353 
  H46           0.6350854624     -4.1967497064      7.4264769848 
   
  nuclear repulsion energy.......    1815.707432098 hartrees
  -------------------------------------------------
 /  end of geometry optimization iteration   1   /
 -------------------------------------------------
   
  Peak memory usage:   4727 Mb
  
  end of program geopt
   
 Time(geopt)  user:        6.9  user+sys:        6.9  wallclock:        0.5
  
  start of program onee
  
  smallest eigenvalue of S:    4.921E-04
  number of canonical orbitals.....          245
  Peak memory usage:   4838 Mb
  
  end of program onee
   
 Time(onee)  user:        2.0  user+sys:        2.0  wallclock:        0.5
  
  start of program probe
  
  Peak memory usage:   4756 Mb
  
  end of program probe
   
 Time(probe)  user:        1.5  user+sys:        1.5  wallclock:        0.5
  
  start of program grid
  
   grid     grid set  grid #  grid sym
  ------    --------  ------  --------
  coarse        0        0        1
  medium        2        1        1
  fine          0        0        1
  ultrafine     4        2        1
  charge       -1        3        1
  gradient      4        2        1
  density       0        0        1
  DFT-fine    -11        4        1
  DFT-med.    -10        5        1
  DFT-grad    -12        6        1
  DFT-der2      0        0        1
  DFT-cphf      0        0        1
  LMP2-enrg     4        2        1
  LMP2-grad     2        1        1
  DFT-cphf2     0        0        1
  PBF-dens      0        0        1
  plotting      0        0        1
  Rel-grad    -17        0        1
  
  number of gridpoints: 
     atom        C1       C2       C3       C4       C5       H6       C7
  grid # 1       79       99       85       83       91      108       98
  grid # 2      262      344      299      277      310      427      358
  grid # 3        6        6        6        6        6      674       96
  grid # 4     4304     4304     4304     4304     4304     4304     4304
  grid # 5     1192     1192     1192     1192     1192     1192     1192
  grid # 6     5226     5226     5226     5226     5226     5226     5226
   
  number of gridpoints: 
     atom        C8       C9      C10      C11      C12      C13      C14
  grid # 1       96       97       98       97       99       86       87
  grid # 2      337      332      353      336      359      294      294
  grid # 3      165      223      235      214      135        6        6
  grid # 4     4304     4304     4304     4304     4304     4304     4304
  grid # 5     1192     1192     1192     1192     1192     1192     1192
  grid # 6     5226     5226     5226     5226     5226     5226     5226
   
  number of gridpoints: 
     atom       C15      H16      C17      H18      C19      C20      C21
  grid # 1       95      102       94      104       86       83       95
  grid # 2      331      414      351      409      304      291      334
  grid # 3        7      288       67      422        6        7        8
  grid # 4     4304     4304     4304     4304     4304     4304     4304
  grid # 5     1192     1192     1192     1192     1192     1192     1192
  grid # 6     5226     5226     5226     5226     5226     5226     5226
   
  number of gridpoints: 
     atom       C22      C23      O24      O25      H26      H27      H28
  grid # 1      101      100      111      114      104      106      106
  grid # 2      390      378      416      427      420      427      425
  grid # 3      288      443      491      834      607      662      752
  grid # 4     4304     4304     4304     4304     4304     4304     4304
  grid # 5     1192     1192     1192     1192     1192     1192     1192
  grid # 6     5226     5226     5226     5226     5226     5226     5226
   
  number of gridpoints: 
     atom       H29      H30      H31      H32      H33      H34      H35
  grid # 1      104      101      108      105      108      116      116
  grid # 2      419      414      422      414      427      440      446
  grid # 3      628      423      533      536      722     1138     1076
  grid # 4     4304     4304     4304     4304     4304     4304     4304
  grid # 5     1192     1192     1192     1192     1192     1192     1192
  grid # 6     5226     5226     5226     5226     5226     5226     5226
   
  number of gridpoints: 
     atom       H36      H37      H38      H39      H40      H41      H42
  grid # 1      110      110      111      110      109      101      112
  grid # 2      436      434      438      435      424      405      442
  grid # 3      900      895      845      851      801      446     1053
  grid # 4     4304     4304     4304     4304     4304     4304     4304
  grid # 5     1192     1192     1192     1192     1192     1192     1192
  grid # 6     5226     5226     5226     5226     5226     5226     5226
   
  number of gridpoints: 
     atom       H43      H44      H45      H46    total
  grid # 1      107      119      108      112     4671
  grid # 2      426      464      421      446    17652
  grid # 3      722     1671      771     1265    21942
  grid # 4     4304     4304     4304     4304   197984
  grid # 5     1192     1192     1192     1192    54832
  grid # 6     5226     5226     5226     5226   240396
   
  Peak memory usage:   4790 Mb
  
  end of program grid
   
 Time(grid)  user:       30.5  user+sys:       30.5  wallclock:        2.8
  
  start of program rwr
  
  Peak memory usage:   4745 Mb
  
  end of program rwr
   
 Time(rwr)  user:       55.4  user+sys:       55.4  wallclock:        5.4
  
  start of program scf
  
 Energy computed with NOPS off.
  
       i  u  d  i  g                   
       t  p  i  c  r                                 RMS    maximum
       e  d  i  u  i                       energy  density   DIIS  
       r  t  s  t  d       total energy    change  change    error 
  
etot    1  N  N  2  U    -925.86394081262           1.7E-03  1.7E-02
etot    2  Y  Y  6  M    -925.94210116263  7.8E-02  6.3E-04  3.8E-03
etot    3  N  Y  2  U    -925.94312982720  1.0E-03  3.8E-04  6.4E-03
etot    4  Y  Y  6  M    -925.94608463707  3.0E-03  1.9E-04  1.9E-03
etot    5  Y  Y  6  M    -925.94623658816  1.5E-04  8.7E-05  8.0E-04
etot    6  N  Y  2  U    -925.94633515419  9.9E-05  6.5E-05  3.4E-04
etot    7  Y  Y  6  M    -925.94633852499  3.4E-06  2.4E-05  2.4E-04
etot    8  N  Y  2  U    -925.94635983011  2.1E-05  2.7E-05  1.2E-04
etot    9  N  Y  2  U    -925.94636455490  4.7E-06  2.0E-05  8.2E-05
etot   10  N  Y  2  U    -925.94636731250  2.8E-06  1.2E-05  8.2E-05
etot   11  N  Y  2  U    -925.94636813577  8.2E-07  1.0E-05  5.7E-05
etot   12  N  Y  2  U    -925.94636871447  5.8E-07  6.6E-06  3.3E-05
etot   13  N  Y  2  U    -925.94636892928  2.1E-07  4.4E-06  2.1E-05
etot   14  N  N  2  U    -925.94636900944  8.0E-08  0.0E+00  0.0E+00
  
  
 Energy components, in hartrees:
   (A)  Nuclear repulsion............    1815.70743209802
   (E)  Total one-electron terms.....   -4841.60937485609
   (I)  Total two-electron terms.....    2099.95557374863
   (L)  Electronic energy............   -2741.65380110746  (E+I)
   (N)  Total energy.................    -925.94636900944  (A+L)
   (O)  Gas phase energy.............    -925.94636900944
  
                                 Total             Coulomb       Exchange+Corr.
 Total two-electron terms    2099.95557374863    2234.32439441220    -134.36882066357
   Hamiltonian  1........    1076.27535490175    1124.11262903456     -47.83727413281
   Hamiltonian  2........    1062.76047825661    1110.21176537764     -47.45128712103
  
 SCFE: SCF energy: UDFT(b3lyp)      -925.94636900944 hartrees   iterations:  14
  
 
 Alpha HOMO energy:    -0.31335
 Alpha LUMO energy:    -0.24686
 
  Alpha Orbital energies (hartrees): 
   -19.29960   -19.26080   -10.45589   -10.41423   -10.39926   -10.39840
   -10.35450   -10.34948   -10.34315   -10.34107   -10.33633   -10.33186
   -10.32745   -10.30845   -10.30576   -10.30364   -10.29502   -10.29363
   -10.29069   -10.28518   -10.27976   -10.27507    -1.18907    -1.16018
    -1.04879    -0.98907    -0.96005    -0.93193    -0.92317    -0.90799
    -0.88385    -0.87262    -0.84407    -0.84130    -0.82379    -0.76474
    -0.75944    -0.73795    -0.73566    -0.70257    -0.69728    -0.68558
    -0.67709    -0.66076    -0.65301    -0.64261    -0.62783    -0.61745
    -0.60745    -0.59563    -0.59060    -0.57416    -0.57214    -0.56181
    -0.55085    -0.54720    -0.53535    -0.53452    -0.52633    -0.52039
    -0.50870    -0.50367    -0.49047    -0.48210    -0.47876    -0.47638
    -0.47141    -0.45891    -0.45262    -0.44791    -0.43990    -0.43215
    -0.42919    -0.41654    -0.41441    -0.41350    -0.39677    -0.35889
    -0.34183    -0.31335    -0.24686    -0.18274    -0.12151    -0.10102
    -0.08399    -0.08287    -0.06259    -0.05273    -0.04665    -0.04036
 
 
 Beta HOMO energy:    -0.30920
 Beta LUMO energy:    -0.28994
 
  Beta Orbital energies (hartrees): 
   -19.29957   -19.26029   -10.45343   -10.41144   -10.39964   -10.39225
   -10.35157   -10.34949   -10.34294   -10.34088   -10.33485   -10.33091
   -10.32750   -10.30831   -10.30559   -10.30341   -10.29505   -10.29358
   -10.29035   -10.28517   -10.27963   -10.27495    -1.18777    -1.15913
    -1.04080    -0.98760    -0.95771    -0.92913    -0.92020    -0.90628
    -0.87728    -0.87091    -0.84180    -0.83945    -0.82268    -0.76290
    -0.75608    -0.73709    -0.73023    -0.70098    -0.69397    -0.68285
    -0.67535    -0.65676    -0.65037    -0.64025    -0.62684    -0.61189
    -0.60473    -0.59354    -0.58720    -0.57140    -0.56847    -0.56027
    -0.54879    -0.54541    -0.53352    -0.53282    -0.52492    -0.51910
    -0.50696    -0.50022    -0.48834    -0.48105    -0.47716    -0.47336
    -0.46834    -0.45629    -0.45045    -0.44668    -0.43915    -0.42992
    -0.42490    -0.41233    -0.41220    -0.41203    -0.38957    -0.34133
    -0.30920    -0.28994    -0.22646    -0.16691    -0.11949    -0.10000
    -0.08202    -0.08102    -0.05800    -0.04963    -0.04306
 
  
  
    Unrestricted Spin Properties ...
    Sz*(Sz+1)      0.750
    <S**2> ...     0.765
  
  
  Peak memory usage:   6749 Mb
  
  end of program scf
   
 Time(scf)  user:      311.8  user+sys:      311.8  wallclock:       21.7
  
  start of program der1a
  
  Peak memory usage:   4838 Mb
  
  end of program der1a
   
 Time(der1a)  user:        2.8  user+sys:        2.8  wallclock:        0.5
  
  start of program rwr
  
  Peak memory usage:   4745 Mb
  
  end of program rwr
   
 Time(rwr)  user:       42.7  user+sys:       42.7  wallclock:        5.9
  
  start of program der1b
  
   
  forces (hartrees/bohr) : total     
   
 atom  label           x              y              z
 ---- --------   -------------  -------------  -------------
    1 C1         -1.015360E-02   8.701885E-03  -1.476414E-03
    2 C2          3.417044E-02   2.577269E-03   4.234763E-02
    3 C3          1.197481E-02   2.928036E-02   3.695448E-02
    4 C4         -1.051424E-02   5.670801E-03   1.099170E-03
    5 C5          1.796119E-03   6.514723E-03  -2.836387E-03
    6 H6          1.642199E-03   1.182311E-02   1.010185E-02
    7 C7          1.617386E-03  -1.533465E-04   3.525709E-03
    8 C8          5.158636E-04   6.604823E-03  -4.571710E-03
    9 C9          5.793090E-03   1.387398E-02  -1.345435E-03
   10 C10         2.072166E-03  -9.808022E-03  -8.502036E-03
   11 C11         2.157446E-03  -2.803163E-03  -5.283968E-03
   12 C12        -5.917983E-03  -5.608295E-03   8.261279E-03
   13 C13        -8.095654E-04   7.771672E-03  -5.181719E-03
   14 C14         2.120031E-03   3.886810E-03  -3.820327E-03
   15 C15         7.578495E-03  -3.963303E-02  -7.797026E-03
   16 H16        -2.721024E-03   6.088320E-03  -1.934417E-03
   17 C17        -2.163592E-02  -1.232643E-01   2.054932E-02
   18 H18         2.608323E-02   2.565847E-03   8.537184E-03
   19 C19        -1.852497E-02   1.349445E-01   1.717778E-02
   20 C20         8.883683E-03   1.855932E-02  -8.187717E-04
   21 C21        -8.459089E-03   4.294790E-03  -1.097579E-01
   22 C22         2.318821E-02   3.555510E-02   3.732338E-02
   23 C23        -1.792928E-02  -5.098294E-02  -2.751838E-02
   24 O24        -2.390155E-02  -2.670443E-02  -9.924979E-03
   25 O25        -4.186775E-03  -7.671535E-03   4.079166E-03
   26 H26         3.414162E-03  -2.360098E-03   6.060923E-03
   27 H27         2.725770E-04  -1.769255E-03  -2.694313E-03
   28 H28        -3.974981E-03  -8.402191E-04  -4.324106E-04
   29 H29        -6.723158E-03   8.349492E-03  -1.233034E-02
   30 H30        -2.249062E-02   8.574940E-03  -1.683355E-02
   31 H31        -3.379253E-03  -1.189444E-02   1.248211E-02
   32 H32        -8.075270E-03   5.819712E-03   7.555390E-03
   33 H33         2.439908E-04  -6.716723E-04  -1.100865E-03
   34 H34        -1.540718E-03  -4.039817E-03   3.952151E-03
   35 H35         4.065998E-04   9.735622E-04   2.608828E-04
   36 H36         2.348743E-03   2.646298E-03  -3.630945E-03
   37 H37         1.607488E-03   4.400019E-03  -6.388018E-03
   38 H38         1.836482E-03   7.137595E-03  -3.376451E-04
   39 H39         2.501007E-03   4.387544E-03  -2.006617E-03
   40 H40         1.562410E-02  -2.795677E-02  -4.120030E-03
   41 H41         1.229623E-02  -2.745327E-02   1.724064E-02
   42 H42        -2.697484E-03  -4.542586E-03  -7.952738E-03
   43 H43         1.233335E-02   2.648139E-03   7.617385E-03
   44 H44        -4.132711E-03   7.443310E-03  -3.228040E-03
   45 H45        -1.603114E-03   7.452271E-04  -4.034776E-04
   46 H46        -3.435339E-03  -4.345398E-03   7.081082E-03
 -------------   -------------  -------------  -------------
     total       -3.287415E-04  -6.633949E-04  -2.099122E-05
   
  Peak memory usage:   6742 Mb
  
  end of program der1b
   
 Time(der1b)  user:       63.2  user+sys:       63.2  wallclock:        4.4
  
  start of program geopt
  
 ----------------------------------------------------------------------------
  Geometry optimization step  2
  Total energy:      -925.94636900944 hartrees
 ----------------------------------------------------------------------------
  
  
  Level shifts adjusted to satisfy step-size constraints
   Step size:    0.3000413
   Cos(theta):   0.7302619
   Final level shift:  -7.5492486E-01
  
  energy change:          -9.6175E-02 .  (  5.0000E-05 )
  gradient maximum:        2.5642E-01 .  (  4.5000E-04 )
  gradient rms:            5.0721E-02 .  (  3.0000E-04 )
  displacement maximum:    8.0195E-02 .  (  1.8000E-03 )
  displacement rms:        2.4719E-02 .  (  1.2000E-03 )
  
  predicted energy change:  -1.0035E-01
  step size:     0.29766
  trust radius:  0.30000
  
  molecular structure not yet converged...
  
  center of mass moved by:
     x:    -4.0170E-02     y:    -5.0546E-02     z:     1.1197E-02
  
  new geometry: 
                                   angstroms
  atom               x                 y                 z
  C1            0.7230267813      0.4184998340     -0.0247166646 
  C2            2.2249967332      0.4068363169      0.0529159369 
  C3            2.7211162141      0.9647539125      1.6813856836 
  C4            2.3083992656      0.0895448451      2.8142486003 
  C5            3.0350173886     -1.2462749799      2.7420813751 
  H6            4.1057009391     -1.1374835787      2.9779619652 
  C7            2.4544464431     -2.2442422448      3.7203566027 
  C8            1.9623950843     -1.7999425684      4.9637427516 
  C9            1.4064831215     -2.6785793841      5.8811675609 
  C10           1.3828235076     -4.0382678934      5.5772354971 
  C11           1.8934361566     -4.5063639301      4.3639059408 
  C12           2.4369654914     -3.6139318786      3.4228547692 
  C13           2.9858549253     -4.1395801872      2.1134297579 
  C14           3.7791021438     -3.0843794474      1.2290346379 
  C15           3.1105076147     -1.6384874988      1.2828397382 
  H16           2.1020103977     -1.7567522865      0.8482599610 
  C17           3.3059512010     -0.5799999668      0.1637705141 
  H18           3.4786919034     -1.1611531713     -0.7463853989 
  C19           3.7896503848      1.6974458188     -0.4138823931 
  C20           2.8713250380      2.0253421965     -1.6864242186 
  C21           2.6879020818      0.5670579347     -1.7372398273 
  C22           1.7604599940     -0.2242494441     -2.5182641875 
  C23           1.2162015516     -1.1911256899     -3.0039039701 
  O24           3.9952032191      0.0614971344     -2.2655735015 
  O25           0.8674427698     -4.9655300377      6.4526681535 
  H26           0.2415422424     -0.0399009729      0.8383352893 
  H27           0.3502030147     -0.0607526056     -0.9271559123 
  H28           0.3979551946      1.4666392571     -0.0416358866 
  H29           2.3875069687      1.9853957750      1.8770580209 
  H30           3.8395581291      0.9523714839      1.7650177243 
  H31           1.2200060492      0.0436817198      2.8603671006 
  H32           2.6782000128      0.6266573405      3.6925596835 
  H33           1.9979304887     -0.7497569978      5.2287467507 
  H34           1.0162653839     -2.2820636243      6.8114878650 
  H35           1.8583109310     -5.5741403110      4.1700362002 
  H36           2.1562257191     -4.5809972015      1.5405398473 
  H37           3.6617185647     -4.9802574284      2.3357385043 
  H38           3.8350243694     -3.5099246918      0.2185704986 
  H39           4.8003616682     -3.0511220263      1.6236466178 
  H40           4.8402745484      2.0162211068     -0.4385980425 
  H41           3.4275066632      2.5671058322      0.1816003081 
  H42           3.3977155533      2.5180525331     -2.5045606379 
  H43           1.9370371925      2.5577980841     -1.4573573472 
  H44           0.8202311146     -2.1053829229     -3.3950892037 
  H45           4.7449793957      0.6570011772     -2.0704577893 
  H46           0.5526556900     -4.5176336231      7.2597068228 
   
  nuclear repulsion energy.......    1809.894970281 hartrees
  -------------------------------------------------
 /  end of geometry optimization iteration   2   /
 -------------------------------------------------
   
  Peak memory usage:   4727 Mb
  
  end of program geopt
   
 Time(geopt)  user:        8.2  user+sys:        8.2  wallclock:        0.6
  
  start of program onee
  
  smallest eigenvalue of S:    5.072E-04
  number of canonical orbitals.....          246
  Peak memory usage:   4838 Mb
  
  end of program onee
   
 Time(onee)  user:        2.1  user+sys:        2.1  wallclock:        0.5
  
  start of program probe
  
  Peak memory usage:   4756 Mb
  
  end of program probe
   
 Time(probe)  user:        2.4  user+sys:        2.4  wallclock:        0.5
  
  start of program grid
  
   grid     grid set  grid #  grid sym
  ------    --------  ------  --------
  coarse        0        0        1
  medium        2        1        1
  fine          0        0        1
  ultrafine     4        2        1
  charge       -1        3        1
  gradient      4        2        1
  density       0        0        1
  DFT-fine    -11        4        1
  DFT-med.    -10        5        1
  DFT-grad    -12        6        1
  DFT-der2      0        0        1
  DFT-cphf      0        0        1
  LMP2-enrg     4        2        1
  LMP2-grad     2        1        1
  DFT-cphf2     0        0        1
  PBF-dens      0        0        1
  plotting      0        0        1
  Rel-grad    -17        0        1
  
  number of gridpoints: 
     atom        C1       C2       C3       C4       C5       H6       C7
  grid # 1       79       99       86       84       90      107      100
  grid # 2      262      348      301      281      317      425      366
  grid # 3        6        6        6        6        6      657      112
  grid # 4     4304     4304     4304     4304     4304     4304     4304
  grid # 5     1192     1192     1192     1192     1192     1192     1192
  grid # 6     5226     5226     5226     5226     5226     5226     5226
   
  number of gridpoints: 
     atom        C8       C9      C10      C11      C12      C13      C14
  grid # 1       96       97       97       97      101       86       86
  grid # 2      337      334      356      336      365      293      294
  grid # 3      177      229      242      214      142        6        6
  grid # 4     4304     4304     4304     4304     4304     4304     4304
  grid # 5     1192     1192     1192     1192     1192     1192     1192
  grid # 6     5226     5226     5226     5226     5226     5226     5226
   
  number of gridpoints: 
     atom       C15      H16      C17      H18      C19      C20      C21
  grid # 1       92      103       95      102       86       82       96
  grid # 2      320      410      338      409      312      290      336
  grid # 3        9      305       48      333        6        6        9
  grid # 4     4304     4304     4304     4304     4304     4304     4304
  grid # 5     1192     1192     1192     1192     1192     1192     1192
  grid # 6     5226     5226     5226     5226     5226     5226     5226
   
  number of gridpoints: 
     atom       C22      C23      O24      O25      H26      H27      H28
  grid # 1      102      100      110      114      104      107      106
  grid # 2      394      382      416      428      422      422      426
  grid # 3      270      448      484      819      653      579      760
  grid # 4     4304     4304     4304     4304     4304     4304     4304
  grid # 5     1192     1192     1192     1192     1192     1192     1192
  grid # 6     5226     5226     5226     5226     5226     5226     5226
   
  number of gridpoints: 
     atom       H29      H30      H31      H32      H33      H34      H35
  grid # 1      106      104      107      105      111      117      115
  grid # 2      427      416      423      418      429      441      445
  grid # 3      670      450      540      601      764     1146     1066
  grid # 4     4304     4304     4304     4304     4304     4304     4304
  grid # 5     1192     1192     1192     1192     1192     1192     1192
  grid # 6     5226     5226     5226     5226     5226     5226     5226
   
  number of gridpoints: 
     atom       H36      H37      H38      H39      H40      H41      H42
  grid # 1      110      109      110      110      111      105      112
  grid # 2      434      434      437      433      431      415      442
  grid # 3      890      886      807      851      878      512     1055
  grid # 4     4304     4304     4304     4304     4304     4304     4304
  grid # 5     1192     1192     1192     1192     1192     1192     1192
  grid # 6     5226     5226     5226     5226     5226     5226     5226
   
  number of gridpoints: 
     atom       H43      H44      H45      H46    total
  grid # 1      107      118      108      114     4683
  grid # 2      430      465      427      450    17717
  grid # 3      740     1683      794     1279    22156
  grid # 4     4304     4304     4304     4304   197984
  grid # 5     1192     1192     1192     1192    54832
  grid # 6     5226     5226     5226     5226   240396
   
  Peak memory usage:   4790 Mb
  
  end of program grid
   
 Time(grid)  user:       31.0  user+sys:       31.0  wallclock:        2.8
  
  start of program rwr
  
  Peak memory usage:   4745 Mb
  
  end of program rwr
   
 Time(rwr)  user:       55.6  user+sys:       55.6  wallclock:        5.1
  
  start of program scf
  
 Energy computed with NOPS off.
  
       i  u  d  i  g                   
       t  p  i  c  r                                 RMS    maximum
       e  d  i  u  i                       energy  density   DIIS  
       r  t  s  t  d       total energy    change  change    error 
  
etot    1  N  N  2  U    -925.93213647727           3.0E-03  2.2E-02
etot    2  Y  Y  6  M    -926.04659420674  1.1E-01  8.4E-04  6.9E-03
etot    3  N  Y  2  U    -926.04049658682 -6.1E-03  6.6E-04  1.6E-02
etot    4  N  Y  2  U    -926.05049566474  1.0E-02  1.6E-04  3.3E-03
etot    5  Y  Y  6  M    -926.05095397829  4.6E-04  1.3E-04  1.3E-03
etot    6  Y  Y  6  M    -926.05111378063  1.6E-04  8.0E-05  5.6E-04
etot    7  N  Y  2  U    -926.05119287436  7.9E-05  9.7E-05  5.5E-04
etot    8  Y  Y  6  M    -926.05124859579  5.6E-05  7.6E-05  5.4E-04
etot    9  Y  Y  6  M    -926.05128217217  3.4E-05  8.1E-05  4.1E-04
etot   10  Y  Y  6  M    -926.05130338859  2.1E-05  5.9E-05  3.4E-04
etot   11  Y  Y  6  M    -926.05131693431  1.4E-05  4.6E-05  2.1E-04
etot   12  N  Y  2  U    -926.05134515407  2.8E-05  2.4E-05  1.1E-04
etot   13  N  Y  2  U    -926.05134787576  2.7E-06  2.4E-05  6.2E-05
etot   14  N  Y  2  U    -926.05134925647  1.4E-06  5.7E-06  2.1E-05
etot   15  N  Y  2  U    -926.05134938257  1.3E-07  4.4E-06  1.5E-05
etot   16  N  N  2  U    -926.05134944058  5.8E-08  0.0E+00  0.0E+00
  
  
 Energy components, in hartrees:
   (A)  Nuclear repulsion............    1809.89497028139
   (E)  Total one-electron terms.....   -4830.22496844568
   (I)  Total two-electron terms.....    2094.27864872370
   (L)  Electronic energy............   -2735.94631972198  (E+I)
   (N)  Total energy.................    -926.05134944058  (A+L)
   (O)  Gas phase energy.............    -926.05134944058
  
                                 Total             Coulomb       Exchange+Corr.
 Total two-electron terms    2094.27864872370    2228.58771986722    -134.30907114352
   Hamiltonian  1........    1073.36399946243    1121.17373176809     -47.80973230566
   Hamiltonian  2........    1059.97813408644    1107.41398809913     -47.43585401269
  
 SCFE: SCF energy: UDFT(b3lyp)      -926.05134944058 hartrees   iterations:  16
  
 
 Alpha HOMO energy:    -0.30850
 Alpha LUMO energy:    -0.26858
 
  Alpha Orbital energies (hartrees): 
   -19.30385   -19.25246   -10.44871   -10.41206   -10.41141   -10.39219
   -10.35393   -10.35179   -10.34726   -10.33762   -10.33401   -10.33171
   -10.33099   -10.32005   -10.31153   -10.31051   -10.29427   -10.29336
   -10.28908   -10.28355   -10.27643   -10.27036    -1.18448    -1.14784
    -1.03562    -0.98736    -0.95608    -0.92722    -0.91967    -0.91618
    -0.88366    -0.86864    -0.84047    -0.83642    -0.82530    -0.77218
    -0.75884    -0.74906    -0.74028    -0.70008    -0.69133    -0.68292
    -0.67706    -0.66222    -0.64734    -0.63853    -0.62474    -0.61328
    -0.60241    -0.60049    -0.59265    -0.57310    -0.56817    -0.56117
    -0.55276    -0.54391    -0.53675    -0.53560    -0.52906    -0.52147
    -0.51088    -0.50170    -0.49644    -0.48455    -0.48239    -0.47890
    -0.47599    -0.46878    -0.45496    -0.45291    -0.44238    -0.43118
    -0.42807    -0.42053    -0.41520    -0.41111    -0.40873    -0.35171
    -0.33815    -0.30850    -0.26858    -0.18071    -0.11992    -0.09733
    -0.08277    -0.08073    -0.06384    -0.04858    -0.04067    -0.03465
 
 
 Beta HOMO energy:    -0.30847
 Beta LUMO energy:    -0.27883
 
  Beta Orbital energies (hartrees): 
   -19.30383   -19.25245   -10.44529   -10.41047   -10.40733   -10.38841
   -10.35173   -10.35060   -10.34751   -10.33762   -10.33309   -10.33086
   -10.33001   -10.31992   -10.31143   -10.31043   -10.29424   -10.29336
   -10.28909   -10.28355   -10.27643   -10.27036    -1.18319    -1.14783
    -1.02897    -0.98489    -0.95451    -0.92422    -0.91730    -0.91328
    -0.88060    -0.86551    -0.83817    -0.83217    -0.82388    -0.76885
    -0.75584    -0.74379    -0.73946    -0.69903    -0.68915    -0.67979
    -0.67552    -0.65804    -0.64469    -0.63611    -0.62376    -0.60995
    -0.59891    -0.59654    -0.59054    -0.57068    -0.56460    -0.56018
    -0.55159    -0.54204    -0.53476    -0.53356    -0.52641    -0.52036
    -0.50882    -0.49955    -0.49437    -0.48385    -0.48099    -0.47732
    -0.47367    -0.46704    -0.45222    -0.44963    -0.44119    -0.42784
    -0.42458    -0.41619    -0.41145    -0.40881    -0.40537    -0.33814
    -0.30847    -0.27883    -0.23715    -0.16625    -0.11794    -0.09727
    -0.08254    -0.07820    -0.05890    -0.04552    -0.03901
 
  
  
    Unrestricted Spin Properties ...
    Sz*(Sz+1)      0.750
    <S**2> ...     0.757
  
  
  Peak memory usage:   6749 Mb
  
  end of program scf
   
 Time(scf)  user:      332.8  user+sys:      332.8  wallclock:       23.0
  
  start of program der1a
  
  Peak memory usage:   4838 Mb
  
  end of program der1a
   
 Time(der1a)  user:        1.9  user+sys:        1.9  wallclock:        0.5
  
  start of program rwr
  
  Peak memory usage:   4745 Mb
  
  end of program rwr
   
 Time(rwr)  user:       42.6  user+sys:       42.6  wallclock:        5.8
  
  start of program der1b
  
   
  forces (hartrees/bohr) : total     
   
 atom  label           x              y              z
 ---- --------   -------------  -------------  -------------
    1 C1         -1.157920E-02   5.707389E-03   6.682333E-03
    2 C2          6.132736E-02  -9.820137E-04   3.332554E-02
    3 C3          7.833823E-03   3.022877E-02   1.153593E-02
    4 C4         -4.474855E-03   5.583375E-03   1.825723E-03
    5 C5         -2.495670E-03   8.263712E-03   7.726999E-04
    6 H6          5.430522E-04   9.941252E-03   7.295319E-03
    7 C7         -3.539402E-04  -2.315108E-03  -7.339552E-05
    8 C8          1.874495E-04   2.947770E-03  -6.085375E-03
    9 C9          3.622067E-03   6.023000E-03  -9.720175E-04
   10 C10         1.388757E-03  -3.311078E-03  -4.739090E-03
   11 C11         1.237115E-03  -1.460965E-04  -2.764747E-03
   12 C12        -2.251776E-03  -2.404037E-03   5.736785E-03
   13 C13         1.313452E-03   5.577289E-03  -6.047618E-03
   14 C14        -6.510279E-03   2.652693E-03   2.000266E-03
   15 C15         1.578900E-02  -3.670232E-02  -3.556248E-03
   16 H16        -1.427221E-02  -1.199868E-02   5.490535E-03
   17 C17        -3.253616E-02  -8.527882E-02   9.242780E-03
   18 H18         2.264211E-02   7.981084E-03  -1.561240E-05
   19 C19        -2.398455E-02   1.188558E-01  -6.314260E-03
   20 C20         1.491295E-02  -3.239670E-03   7.039778E-03
   21 C21        -1.577086E-03   9.429217E-03  -8.747477E-02
   22 C22         1.043378E-02   2.652105E-03   1.273653E-02
   23 C23        -4.880108E-03  -1.366717E-02  -7.081393E-03
   24 O24        -2.421618E-02  -1.663099E-02   9.958509E-03
   25 O25        -2.483467E-03  -3.361539E-03   2.727686E-03
   26 H26         1.736128E-03  -1.560117E-03   5.028989E-03
   27 H27        -9.500427E-04  -9.047006E-04   2.164900E-03
   28 H28        -2.235623E-03  -7.139971E-04   4.196539E-04
   29 H29        -3.839746E-03   3.743902E-03  -9.222056E-03
   30 H30        -1.574660E-02   7.655046E-03  -1.333409E-02
   31 H31        -1.908765E-03  -1.033929E-02   7.343024E-03
   32 H32        -6.535759E-03   3.270742E-03   5.837116E-03
   33 H33        -1.286474E-04   5.418760E-04  -1.052969E-03
   34 H34        -6.993046E-04  -3.056599E-03   2.459208E-03
   35 H35         3.398346E-04   8.496531E-04   1.223061E-04
   36 H36         1.437234E-03   2.571872E-03  -2.652698E-03
   37 H37         4.088250E-04   3.005804E-03  -3.560648E-03
   38 H38         4.628730E-04   6.765386E-03  -1.201881E-03
   39 H39         1.406196E-03   5.567978E-03  -1.118795E-03
   40 H40         1.276634E-02  -3.185133E-02  -4.117341E-03
   41 H41         3.004316E-03  -2.359521E-02   1.921722E-02
   42 H42        -2.868070E-03  -3.954557E-03  -5.848175E-03
   43 H43         9.657389E-03   1.933510E-03   5.721362E-03
   44 H44        -3.446486E-03   5.769724E-03  -3.138569E-03
   45 H45         7.366816E-05   2.392307E-03   1.347836E-03
   46 H46        -2.107535E-03  -4.110458E-03   3.893937E-03
 -------------   -------------  -------------  -------------
     total        4.416610E-04  -2.125417E-04  -4.457835E-04
   
  Peak memory usage:   6742 Mb
  
  end of program der1b
   
 Time(der1b)  user:       60.4  user+sys:       60.4  wallclock:        4.2
  
  start of program geopt
  
 ----------------------------------------------------------------------------
  Geometry optimization step  3
  Total energy:      -926.05134944058 hartrees
 ----------------------------------------------------------------------------
  detected            2  molecular fragments
  detected            2  molecular fragments
  
  
  Level shifts adjusted to satisfy step-size constraints
   Step size:    0.3000526
   Cos(theta):   0.9071617
   Final level shift:  -6.1043412E-01
  
  energy change:          -1.0498E-01 .  (  5.0000E-05 )
  gradient maximum:        1.3538E-01 .  (  4.5000E-04 )
  gradient rms:            2.5439E-02 .  (  3.0000E-04 )
  displacement maximum:    9.6931E-02 .  (  1.8000E-03 )
  displacement rms:        2.4918E-02 .  (  1.2000E-03 )
  
  predicted energy change:  -6.9169E-02
  step size:     0.30005
  trust radius:  0.30000
  
  molecular structure not yet converged...
  
  center of mass moved by:
     x:     1.6406E-03     y:    -2.8475E-02     z:     1.2891E-02
  
  new geometry: 
                                   angstroms
  atom               x                 y                 z
  C1            0.7526849370      0.6026375043     -0.0649113457 
  C2            2.2509426533      0.4372788938      0.0616931253 
  C3            2.7399174253      0.9998872903      1.6860296030 
  C4            2.2646347165      0.1287260794      2.8219966561 
  C5            2.9900457271     -1.2185045416      2.7648373525 
  H6            4.0510124816     -1.0864317984      3.0392233665 
  C7            2.4314239473     -2.2395001159      3.7402950660 
  C8            1.9197767219     -1.8196990593      4.9822979040 
  C9            1.3940232914     -2.7303961310      5.8937723901 
  C10           1.4222513963     -4.0933322210      5.5855859290 
  C11           1.9557091186     -4.5330814311      4.3733956557 
  C12           2.4660247364     -3.6142529003      3.4426904997 
  C13           3.0371265454     -4.1321611029      2.1377451109 
  C14           3.7882509147     -3.0655632731      1.2550346751 
  C15           3.0681756913     -1.6702100306      1.3132332179 
  H16           2.0415896269     -1.8344173220      0.9115287346 
  C17           3.0924956362     -0.7871477041      0.1837915640 
  H18           3.2407359002     -1.3650802168     -0.7329399230 
  C19           3.7975899649      1.8825822145     -0.4666554584 
  C20           2.9198955493      2.0489409439     -1.7853860715 
  C21           2.7143491107      0.5650859993     -1.7627029131 
  C22           1.7754102084     -0.2217917126     -2.5344877843 
  C23           1.1880819043     -1.1643012793     -3.0317749754 
  O24           3.9901801178     -0.0330983776     -2.2206928799 
  O25           0.9391449637     -5.0577375545      6.4494674393 
  H26           0.2104399449      0.2260757444      0.8050585946 
  H27           0.3534679412      0.1284844413     -0.9574885349 
  H28           0.5336236230      1.6762123843     -0.1261677192 
  H29           2.4622105494      2.0481638653      1.8229847209 
  H30           3.8463802289      0.9359034109      1.7600015836 
  H31           1.1742976079      0.0786861399      2.8515081961 
  H32           2.5894363587      0.6682700482      3.7197218904 
  H33           1.9213889199     -0.7695338006      5.2512583558 
  H34           0.9845021924     -2.3660181417      6.8298211279 
  H35           1.9636716152     -5.5995704448      4.1728203834 
  H36           2.2281274990     -4.6036585573      1.5601986436 
  H37           3.7421449142     -4.9462148633      2.3598316826 
  H38           3.8700124594     -3.4798705663      0.2426149368 
  H39           4.8079177961     -2.9766237424      1.6469766074 
  H40           4.8551228963      2.1862075651     -0.4724841408 
  H41           3.4170560750      2.7620618329      0.0916324389 
  H42           3.4448994588      2.4632779601     -2.6477413840 
  H43           1.9834864027      2.5933831763     -1.6210173368 
  H44           0.7417516976     -2.0438641501     -3.4437200251 
  H45           4.7670370192      0.5227894296     -2.0088495135 
  H46           0.5979351722     -4.6458211082      7.2662105382 
   
  nuclear repulsion energy.......    1798.995577748 hartrees
  -------------------------------------------------
 /  end of geometry optimization iteration   3   /
 -------------------------------------------------
   
  Peak memory usage:   4727 Mb
  
  end of program geopt
   
 Time(geopt)  user:        8.0  user+sys:        8.0  wallclock:        0.7
  
  start of program onee
  
  smallest eigenvalue of S:    5.122E-04
  number of canonical orbitals.....          246
  Peak memory usage:   4838 Mb
  
  end of program onee
   
 Time(onee)  user:        2.9  user+sys:        2.9  wallclock:        0.5
  
  start of program probe
  
  Peak memory usage:   4756 Mb
  
  end of program probe
   
 Time(probe)  user:        2.1  user+sys:        2.1  wallclock:        0.4
  
  start of program grid
  
   grid     grid set  grid #  grid sym
  ------    --------  ------  --------
  coarse        0        0        1
  medium        2        1        1
  fine          0        0        1
  ultrafine     4        2        1
  charge       -1        3        1
  gradient      4        2        1
  density       0        0        1
  DFT-fine    -11        4        1
  DFT-med.    -10        5        1
  DFT-grad    -12        6        1
  DFT-der2      0        0        1
  DFT-cphf      0        0        1
  LMP2-enrg     4        2        1
  LMP2-grad     2        1        1
  DFT-cphf2     0        0        1
  PBF-dens      0        0        1
  plotting      0        0        1
  Rel-grad    -17        0        1
  
  number of gridpoints: 
     atom        C1       C2       C3       C4       C5       H6       C7
  grid # 1       79       99       86       84       91      107      100
  grid # 2      267      356      300      285      314      425      365
  grid # 3        6        6        6        6        6      651      111
  grid # 4     4304     4304     4304     4304     4304     4304     4304
  grid # 5     1192     1192     1192     1192     1192     1192     1192
  grid # 6     5226     5226     5226     5226     5226     5226     5226
   
  number of gridpoints: 
     atom        C8       C9      C10      C11      C12      C13      C14
  grid # 1       96       97       98       97      101       86       86
  grid # 2      334      334      354      336      363      292      295
  grid # 3      179      229      238      213      141        6        6
  grid # 4     4304     4304     4304     4304     4304     4304     4304
  grid # 5     1192     1192     1192     1192     1192     1192     1192
  grid # 6     5226     5226     5226     5226     5226     5226     5226
   
  number of gridpoints: 
     atom       C15      H16      C17      H18      C19      C20      C21
  grid # 1       91      104       91      102       91       83       97
  grid # 2      320      416      329      410      316      290      344
  grid # 3        9      361       55      315        8        6        7
  grid # 4     4304     4304     4304     4304     4304     4304     4304
  grid # 5     1192     1192     1192     1192     1192     1192     1192
  grid # 6     5226     5226     5226     5226     5226     5226     5226
   
  number of gridpoints: 
     atom       C22      C23      O24      O25      H26      H27      H28
  grid # 1      102      100      110      114      104      106      104
  grid # 2      390      384      418      428      425      423      424
  grid # 3      245      442      470      815      674      596      717
  grid # 4     4304     4304     4304     4304     4304     4304     4304
  grid # 5     1192     1192     1192     1192     1192     1192     1192
  grid # 6     5226     5226     5226     5226     5226     5226     5226
   
  number of gridpoints: 
     atom       H29      H30      H31      H32      H33      H34      H35
  grid # 1      106      106      107      106      111      117      115
  grid # 2      426      413      425      418      431      442      444
  grid # 3      647      479      558      626      766     1146     1054
  grid # 4     4304     4304     4304     4304     4304     4304     4304
  grid # 5     1192     1192     1192     1192     1192     1192     1192
  grid # 6     5226     5226     5226     5226     5226     5226     5226
   
  number of gridpoints: 
     atom       H36      H37      H38      H39      H40      H41      H42
  grid # 1      110      109      110      110      112      107      112
  grid # 2      433      432      432      433      432      414      442
  grid # 3      877      882      787      850      915      580     1064
  grid # 4     4304     4304     4304     4304     4304     4304     4304
  grid # 5     1192     1192     1192     1192     1192     1192     1192
  grid # 6     5226     5226     5226     5226     5226     5226     5226
   
  number of gridpoints: 
     atom       H43      H44      H45      H46    total
  grid # 1      106      120      108      114     4692
  grid # 2      428      465      432      450    17729
  grid # 3      715     1712      835     1292    22309
  grid # 4     4304     4304     4304     4304   197984
  grid # 5     1192     1192     1192     1192    54832
  grid # 6     5226     5226     5226     5226   240396
   
  Peak memory usage:   4790 Mb
  
  end of program grid
   
 Time(grid)  user:       28.0  user+sys:       28.0  wallclock:        2.5
  
  start of program rwr
  
  Peak memory usage:   4745 Mb
  
  end of program rwr
   
 Time(rwr)  user:       56.2  user+sys:       56.2  wallclock:        5.4
  
  start of program scf
  
 Energy computed with NOPS off.
  
       i  u  d  i  g                   
       t  p  i  c  r                                 RMS    maximum
       e  d  i  u  i                       energy  density   DIIS  
       r  t  s  t  d       total energy    change  change    error 
  
etot    1  N  N  2  U    -926.06167777907           1.8E-03  1.8E-02
etot    2  Y  Y  6  M    -926.11827832566  5.7E-02  9.3E-04  7.3E-03
etot    3  N  Y  2  U    -926.12136699144  3.1E-03  8.7E-04  1.7E-02
etot    4  Y  Y  6  M    -926.12694000938  5.6E-03  2.7E-04  7.4E-03
etot    5  N  Y  2  U    -926.12902884306  2.1E-03  5.7E-04  4.6E-03
etot    6  Y  Y  6  M    -926.13123411980  2.2E-03  5.4E-04  3.0E-03
etot    7  N  Y  2  U    -926.13245579188  1.2E-03  1.9E-04  2.0E-03
etot    8  Y  Y  6  M    -926.13269832709  2.4E-04  1.5E-04  1.6E-03
etot    9  Y  Y  6  M    -926.13282361784  1.3E-04  8.0E-05  8.3E-04
etot   10  Y  Y  6  M    -926.13286767537  4.4E-05  8.8E-05  5.7E-04
etot   11  Y  Y  6  M    -926.13290366844  3.6E-05  6.0E-05  3.7E-04
etot   12  N  Y  2  U    -926.13288792531 -1.6E-05  2.9E-05  1.3E-04
etot   13  N  Y  2  U    -926.13289111290  3.2E-06  1.1E-05  5.1E-05
etot   14  N  Y  2  U    -926.13289160057  4.9E-07  4.1E-06  1.8E-05
etot   15  N  N  2  U    -926.13289171239  1.1E-07  0.0E+00  0.0E+00
  
  
 Energy components, in hartrees:
   (A)  Nuclear repulsion............    1798.99557774815
   (E)  Total one-electron terms.....   -4808.43251376450
   (I)  Total two-electron terms.....    2083.30404430395
   (L)  Electronic energy............   -2725.12846946054  (E+I)
   (N)  Total energy.................    -926.13289171239  (A+L)
   (O)  Gas phase energy.............    -926.13289171239
  
                                 Total             Coulomb       Exchange+Corr.
 Total two-electron terms    2083.30404430395    2217.61464536980    -134.31060106585
   Hamiltonian  1........    1067.55793974541    1115.37112501988     -47.81318527447
   Hamiltonian  2........    1054.80853974774    1102.24352034992     -47.43498060218
  
 SCFE: SCF energy: UDFT(b3lyp)      -926.13289171239 hartrees   iterations:  15
  
 
 Alpha HOMO energy:    -0.31679
 Alpha LUMO energy:    -0.26885
 
  Alpha Orbital energies (hartrees): 
   -19.29396   -19.25861   -10.43412   -10.43359   -10.39699   -10.37718
   -10.34779   -10.34537   -10.33755   -10.33182   -10.33010   -10.32944
   -10.32726   -10.32498   -10.32494   -10.31845   -10.30418   -10.30306
   -10.29982   -10.29217   -10.28473   -10.27808    -1.17299    -1.15061
    -1.04241    -0.98003    -0.95920    -0.93560    -0.91695    -0.90437
    -0.89165    -0.86617    -0.84506    -0.83115    -0.82132    -0.77628
    -0.76187    -0.75152    -0.74006    -0.70753    -0.69630    -0.68790
    -0.66760    -0.65531    -0.63794    -0.63310    -0.62864    -0.61046
    -0.60591    -0.59348    -0.59133    -0.57689    -0.56917    -0.56612
    -0.55398    -0.54920    -0.54057    -0.53636    -0.52503    -0.51622
    -0.50952    -0.50716    -0.50193    -0.49268    -0.48834    -0.48404
    -0.47827    -0.47576    -0.45922    -0.45420    -0.44495    -0.43795
    -0.42720    -0.42205    -0.41775    -0.41219    -0.40238    -0.34596
    -0.33680    -0.31679    -0.26885    -0.15489    -0.10993    -0.10504
    -0.09169    -0.07195    -0.05526    -0.04891    -0.03469    -0.02803
 
 
 Beta HOMO energy:    -0.31679
 Beta LUMO energy:    -0.26597
 
  Beta Orbital energies (hartrees): 
   -19.29383   -19.25861   -10.43320   -10.43078   -10.39793   -10.37720
   -10.34598   -10.34536   -10.33756   -10.32959   -10.32904   -10.32711
   -10.32544   -10.32496   -10.31823   -10.31716   -10.30418   -10.30306
   -10.29982   -10.29216   -10.28473   -10.27808    -1.17183    -1.15061
    -1.04164    -0.97804    -0.95634    -0.93439    -0.91533    -0.89919
    -0.89071    -0.86500    -0.84484    -0.83059    -0.81243    -0.77405
    -0.76067    -0.75061    -0.72875    -0.70732    -0.69597    -0.68732
    -0.66597    -0.65184    -0.63594    -0.63082    -0.62647    -0.60943
    -0.60490    -0.59253    -0.58917    -0.57605    -0.56840    -0.56539
    -0.55264    -0.54886    -0.53996    -0.53573    -0.52349    -0.51533
    -0.50761    -0.50249    -0.49737    -0.49220    -0.48708    -0.48350
    -0.47784    -0.47199    -0.45601    -0.45293    -0.44241    -0.43227
    -0.42605    -0.41790    -0.41734    -0.40710    -0.39665    -0.34589
    -0.31679    -0.26597    -0.21075    -0.14386    -0.10768    -0.10500
    -0.09165    -0.07040    -0.05241    -0.04759    -0.03355
 
  
  
    Unrestricted Spin Properties ...
    Sz*(Sz+1)      0.750
    <S**2> ...     0.759
  
  
  Peak memory usage:   6749 Mb
  
  end of program scf
   
 Time(scf)  user:      295.8  user+sys:      295.8  wallclock:       20.6
  
  start of program der1a
  
  Peak memory usage:   4838 Mb
  
  end of program der1a
   
 Time(der1a)  user:        2.5  user+sys:        2.5  wallclock:        0.5
  
  start of program rwr
  
  Peak memory usage:   4745 Mb
  
  end of program rwr
   
 Time(rwr)  user:       42.5  user+sys:       42.5  wallclock:        5.7
  
  start of program der1b
  
   
  forces (hartrees/bohr) : total     
   
 atom  label           x              y              z
 ---- --------   -------------  -------------  -------------
    1 C1         -1.252814E-02   2.692125E-03   9.116972E-03
    2 C2          6.472438E-02  -4.029877E-02   2.847117E-02
    3 C3          1.099207E-02   1.787693E-02  -1.238940E-02
    4 C4         -1.039325E-03   7.125687E-03  -1.598754E-03
    5 C5         -5.358669E-03   7.555045E-03   5.060217E-03
    6 H6          2.079653E-04   7.446335E-03   5.286558E-05
    7 C7         -1.925371E-03  -4.174368E-03  -6.333432E-04
    8 C8         -1.231624E-03   3.848051E-04  -3.501241E-03
    9 C9          3.155547E-03   4.082936E-03  -5.687212E-04
   10 C10        -4.884378E-04  -2.736017E-03  -5.942796E-04
   11 C11         1.002686E-03   5.806632E-04  -2.199684E-03
   12 C12        -1.233346E-03  -1.119211E-03   3.445472E-03
   13 C13         2.007633E-03   2.705969E-03  -5.733566E-03
   14 C14        -6.297969E-03  -1.686690E-03   5.855191E-03
   15 C15         3.130316E-02  -4.339849E-02   2.792199E-02
   16 H16        -1.955058E-02  -1.188116E-02   1.970241E-03
   17 C17        -8.182759E-02  -2.542182E-02  -1.900367E-02
   18 H18         1.846288E-02   8.485185E-03  -2.596274E-03
   19 C19        -1.691756E-03   1.235787E-01  -2.095802E-02
   20 C20         1.423970E-02  -1.711213E-02   1.846677E-02
   21 C21         7.831079E-03   1.361898E-02  -5.422664E-02
   22 C22         1.335284E-03  -7.093119E-03   8.765627E-03
   23 C23         2.146240E-04  -3.251738E-03  -1.157567E-03
   24 O24        -1.346152E-02  -9.430895E-03   1.575800E-02
   25 O25        -6.327163E-04   1.182664E-03   6.382519E-05
   26 H26         1.078645E-03  -1.998280E-03   3.289569E-03
   27 H27        -1.636823E-03  -1.311336E-03   1.859511E-03
   28 H28         1.970627E-04  -1.074922E-03   6.009666E-04
   29 H29        -3.886165E-03  -2.110783E-03  -5.864749E-03
   30 H30        -8.172708E-03   7.933434E-03  -1.092447E-02
   31 H31        -1.493772E-03  -8.615588E-03   3.220649E-03
   32 H32        -3.667922E-03   3.476891E-04   3.320534E-03
   33 H33        -7.892293E-04   1.948949E-04  -6.468430E-04
   34 H34        -1.038124E-04  -1.829509E-03   1.422856E-03
   35 H35         4.293617E-04   5.918611E-04  -7.890214E-05
   36 H36         6.422530E-04   2.118291E-03  -2.036557E-03
   37 H37        -1.157065E-04   1.860712E-03  -1.989084E-03
   38 H38        -5.258731E-04   6.082906E-03  -1.595658E-03
   39 H39         4.841180E-04   5.215211E-03  -7.215382E-04
   40 H40         9.983497E-03  -2.342042E-02  -7.859371E-03
   41 H41        -7.973242E-04  -1.673066E-02   1.798127E-02
   42 H42        -1.166549E-03  -4.837902E-03  -3.542936E-03
   43 H43         6.145125E-03   2.019925E-03   2.786419E-03
   44 H44        -3.020883E-03   4.724164E-03  -3.018073E-03
   45 H45        -3.675072E-04   4.065025E-03   1.564779E-03
   46 H46        -1.220162E-03  -3.317057E-03   2.343731E-03
 -------------   -------------  -------------  -------------
     total        2.055928E-04  -3.807223E-04  -1.007154E-04
   
  Peak memory usage:   6742 Mb
  
  end of program der1b
   
 Time(der1b)  user:       62.6  user+sys:       62.6  wallclock:        4.4
  
  start of program geopt
  
 ----------------------------------------------------------------------------
  Geometry optimization step  4
  Total energy:      -926.13289171239 hartrees
 ----------------------------------------------------------------------------
  detected            2  molecular fragments
  detected            2  molecular fragments
  
  
  Level shifts adjusted to satisfy step-size constraints
   Step size:    0.3000212
   Cos(theta):   0.7834026
   Final level shift:  -5.6242915E-01
  
  energy change:          -8.1542E-02 .  (  5.0000E-05 )
  gradient maximum:        1.8751E-01 .  (  4.5000E-04 )
  gradient rms:            3.4401E-02 .  (  3.0000E-04 )
  displacement maximum:    1.1524E-01 .  (  1.8000E-03 )
  displacement rms:        2.4915E-02 .  (  1.2000E-03 )
  
  predicted energy change:  -7.3993E-02
  step size:     0.30002
  trust radius:  0.30000
  
  molecular structure not yet converged...
  
  center of mass moved by:
     x:     1.2410E-02     y:    -1.6299E-02     z:     1.3920E-02
  
  new geometry: 
                                   angstroms
  atom               x                 y                 z
  C1            0.7890967702      0.7010619575     -0.0917015388 
  C2            2.2785708132      0.4043809737      0.0380389917 
  C3            2.8009657327      0.9551749454      1.6360529286 
  C4            2.3041767095      0.0993348647      2.7929929855 
  C5            2.9975728311     -1.2690126434      2.7667934985 
  H6            4.0601574530     -1.1342597164      3.0384425342 
  C7            2.4309169898     -2.2729303447      3.7611428833 
  C8            1.9213530758     -1.8312344300      4.9946987245 
  C9            1.3917022556     -2.7286983271      5.9204036980 
  C10           1.4125807294     -4.0990025858      5.6346785877 
  C11           1.9452044612     -4.5586538170      4.4301421126 
  C12           2.4590919789     -3.6564959371      3.4881052803 
  C13           3.0251950168     -4.2089708235      2.1930821385 
  C14           3.7731153000     -3.1707034315      1.2928040905 
  C15           3.0584051890     -1.7918238295      1.3358635310 
  H16           2.0054937463     -1.9748815249      0.9714662754 
  C17           2.8432835045     -0.9911720846      0.1079602792 
  H18           2.9362707413     -1.5373368932     -0.8360808181 
  C19           3.7445090276      2.2290106845     -0.5081533731 
  C20           2.8739251531      2.1376110448     -1.8347888243 
  C21           2.7494183265      0.6197323726     -1.7850334017 
  C22           1.8538681218     -0.1967632999     -2.5785472791 
  C23           1.2915115391     -1.1325382297     -3.1199438342 
  O24           4.0438795534      0.0389295107     -2.1671122366 
  O25           0.9236165186     -5.0560437230      6.5080706868 
  H26           0.2233648537      0.3837089068      0.7925877623 
  H27           0.3451116462      0.2460172048     -0.9733420707 
  H28           0.6636779785      1.7917534827     -0.1665552193 
  H29           2.5672878652      2.0187669850      1.7392736910 
[...]
  density       0        0        1
  DFT-fine    -11        4        1
  DFT-med.    -10        5        1
  DFT-grad    -12        6        1
  DFT-der2      0        0        1
  DFT-cphf      0        0        1
  LMP2-enrg     4        2        1
  LMP2-grad     2        1        1
  DFT-cphf2     0        0        1
  PBF-dens      0        0        1
  plotting      0        0        1
  Rel-grad    -17        0        1
  
  number of gridpoints: 
     atom        C1       C2       C3       C4       C5       H6       C7
  grid # 1       78       98       86       86       89      103      100
  grid # 2      269      345      293      291      314      419      362
  grid # 3        6        6        6        6        6      416      113
  grid # 4     4304     4304     4304     4304     4304     4304     4304
  grid # 5     1192     1192     1192     1192     1192     1192     1192
  grid # 6     5226     5226     5226     5226     5226     5226     5226
   
  number of gridpoints: 
     atom        C8       C9      C10      C11      C12      C13      C14
  grid # 1       97       97       98       97       99       86       86
  grid # 2      337      334      356      336      364      292      289
  grid # 3      192      230      242      215      140        6        6
  grid # 4     4304     4304     4304     4304     4304     4304     4304
  grid # 5     1192     1192     1192     1192     1192     1192     1192
  grid # 6     5226     5226     5226     5226     5226     5226     5226
   
  number of gridpoints: 
     atom       C15      H16      C17      H18      C19      C20      C21
  grid # 1       90      105       92      109       86       87       96
  grid # 2      316      423      319      423      313      283      353
  grid # 3        6      502        6      551       34        6        8
  grid # 4     4304     4304     4304     4304     4304     4304     4304
  grid # 5     1192     1192     1192     1192     1192     1192     1192
  grid # 6     5226     5226     5226     5226     5226     5226     5226
   
  number of gridpoints: 
     atom       C22      C23      O24      O25      H26      H27      H28
  grid # 1      100      100      110      114      106      109      109
  grid # 2      390      384      408      426      432      428      437
  grid # 3      138      474      291      794      797      725      899
  grid # 4     4304     4304     4304     4304     4304     4304     4304
  grid # 5     1192     1192     1192     1192     1192     1192     1192
  grid # 6     5226     5226     5226     5226     5226     5226     5226
   
  number of gridpoints: 
     atom       H29      H30      H31      H32      H33      H34      H35
  grid # 1      108      103      109      105      108      118      115
  grid # 2      428      399      430      422      433      444      441
  grid # 3      691      210      666      567      806     1154     1046
  grid # 4     4304     4304     4304     4304     4304     4304     4304
  grid # 5     1192     1192     1192     1192     1192     1192     1192
  grid # 6     5226     5226     5226     5226     5226     5226     5226
   
  number of gridpoints: 
     atom       H36      H37      H38      H39      H40      H41      H42
  grid # 1      109      108      110      107      114      114      109
  grid # 2      435      435      434      433      448      444      438
  grid # 3      878      873      836      684     1134     1034      935
  grid # 4     4304     4304     4304     4304     4304     4304     4304
  grid # 5     1192     1192     1192     1192     1192     1192     1192
  grid # 6     5226     5226     5226     5226     5226     5226     5226
   
  number of gridpoints: 
     atom       H43      H44      H45      H46    total
  grid # 1      107      119      105      114     4695
  grid # 2      430      466      414      450    17760
  grid # 3      739     1786      288     1319    22467
  grid # 4     4304     4304     4304     4304   197984
  grid # 5     1192     1192     1192     1192    54832
  grid # 6     5226     5226     5226     5226   240396
   
  Peak memory usage:   4790 Mb
  
  end of program grid
   
 Time(grid)  user:       28.0  user+sys:       28.0  wallclock:        2.4
  
  start of program rwr
  
  Peak memory usage:   4745 Mb
  
  end of program rwr
   
 Time(rwr)  user:       56.5  user+sys:       56.5  wallclock:        5.2
  
  start of program scf
  
 Energy computed with NOPS off.
  
       i  u  d  i  g                   
       t  p  i  c  r                                 RMS    maximum
       e  d  i  u  i                       energy  density   DIIS  
       r  t  s  t  d       total energy    change  change    error 
  
etot    1  N  N  2  U    -926.37475355027           1.9E-05  2.2E-04
etot    2  N  Y  2  U    -926.37476414944  1.1E-05  4.3E-06  5.9E-05
etot    3  N  N  2  U    -926.37476396193 -1.9E-07  0.0E+00  0.0E+00
  
  
 Energy components, in hartrees:
   (A)  Nuclear repulsion............    1819.96502625852
   (E)  Total one-electron terms.....   -4850.70643892045
   (I)  Total two-electron terms.....    2104.36664870000
   (L)  Electronic energy............   -2746.33979022045  (E+I)
   (N)  Total energy.................    -926.37476396193  (A+L)
   (O)  Gas phase energy.............    -926.37476396193
  
                                 Total             Coulomb       Exchange+Corr.
 Total two-electron terms    2104.36664870000    2238.74684362871    -134.38019492871
   Hamiltonian  1........    1077.46193173270    1125.28319966669     -47.82126793399
   Hamiltonian  2........    1065.98329669952    1113.46364396202     -47.48034726250
  
 SCFE: SCF energy: UDFT(b3lyp)      -926.37476396193 hartrees   iterations:   3
  
 
 Alpha HOMO energy:    -0.30697
 Alpha LUMO energy:    -0.19669
 
  Alpha Orbital energies (hartrees): 
   -19.38995   -19.25046   -10.45989   -10.41690   -10.37321   -10.35582
   -10.35144   -10.34995   -10.34417   -10.33674   -10.33304   -10.32171
   -10.31938   -10.31103   -10.30626   -10.30479   -10.29171   -10.28819
   -10.28764   -10.28166   -10.27541   -10.26728    -1.25058    -1.14028
    -1.00944    -0.98656    -0.95517    -0.92808    -0.92055    -0.90409
    -0.87838    -0.85676    -0.84454    -0.83311    -0.81581    -0.77757
    -0.76540    -0.74610    -0.73638    -0.70987    -0.69216    -0.68512
    -0.68190    -0.65873    -0.64516    -0.63914    -0.63020    -0.62064
    -0.60677    -0.59822    -0.57861    -0.57504    -0.57196    -0.55973
    -0.55524    -0.54755    -0.53697    -0.53076    -0.52450    -0.52348
    -0.51896    -0.51162    -0.50381    -0.49429    -0.48837    -0.48293
    -0.48001    -0.47660    -0.46953    -0.46124    -0.45600    -0.43992
    -0.43359    -0.42980    -0.42485    -0.41272    -0.40686    -0.37389
    -0.33583    -0.30697    -0.19669    -0.12483    -0.10215    -0.09370
    -0.08464    -0.06379    -0.05169    -0.04579    -0.03862    -0.02367
 
 
 Beta HOMO energy:    -0.30698
 Beta LUMO energy:    -0.23139
 
  Beta Orbital energies (hartrees): 
   -19.38928   -19.25045   -10.45856   -10.41682   -10.37323   -10.35674
   -10.34983   -10.34427   -10.33794   -10.33672   -10.33303   -10.32157
   -10.31934   -10.31103   -10.30626   -10.30479   -10.29170   -10.28818
   -10.28764   -10.28166   -10.27541   -10.26728    -1.24898    -1.14025
    -1.00852    -0.98505    -0.95338    -0.92549    -0.91587    -0.90240
    -0.87775    -0.85206    -0.84256    -0.83089    -0.81383    -0.77302
    -0.75755    -0.74151    -0.73349    -0.70911    -0.69190    -0.68457
    -0.68168    -0.65773    -0.64323    -0.63613    -0.62971    -0.62018
    -0.60420    -0.59441    -0.57716    -0.57433    -0.57068    -0.55887
    -0.55189    -0.54365    -0.53648    -0.53040    -0.52338    -0.52118
    -0.51857    -0.51103    -0.50278    -0.49394    -0.48801    -0.48226
    -0.47989    -0.47611    -0.46923    -0.46074    -0.45587    -0.43950
    -0.43329    -0.42962    -0.42288    -0.41263    -0.40673    -0.33582
    -0.30698    -0.23139    -0.19169    -0.12230    -0.09817    -0.09362
    -0.08406    -0.05882    -0.05108    -0.04364    -0.03462
 
  
  
    Unrestricted Spin Properties ...
    Sz*(Sz+1)      0.750
    <S**2> ...     0.753
  
  
  Peak memory usage:   6749 Mb
  
  end of program scf
   
 Time(scf)  user:       86.6  user+sys:       86.6  wallclock:        6.3
  
  start of program der1a
  
  Peak memory usage:   4838 Mb
  
  end of program der1a
   
 Time(der1a)  user:        2.1  user+sys:        2.1  wallclock:        0.5
  
  start of program rwr
  
  Peak memory usage:   4748 Mb
  
  end of program rwr
   
 Time(rwr)  user:       48.8  user+sys:       48.8  wallclock:        6.4
  
  start of program der1b
  
   
  forces (hartrees/bohr) : total     
   
 atom  label           x              y              z
 ---- --------   -------------  -------------  -------------
    1 C1          2.858958E-05   6.668529E-05   6.112596E-05
    2 C2          2.194513E-05   1.250922E-05   4.500971E-05
    3 C3          1.027219E-05   3.046665E-05   1.276972E-05
    4 C4         -3.477539E-06  -6.809652E-07   5.056799E-05
    5 C5          9.981969E-06   1.803872E-05   1.482515E-05
    6 H6         -5.818791E-06  -5.363183E-06   2.343880E-05
    7 C7         -1.271231E-05  -1.747193E-06   2.832769E-05
    8 C8         -1.484927E-05  -1.684247E-05   5.908887E-05
    9 C9         -1.266814E-05  -4.418728E-05   2.000989E-05
   10 C10        -1.798404E-05  -3.090742E-05   4.184655E-06
   11 C11        -2.843841E-05  -2.361358E-05   2.312207E-05
   12 C12        -1.044834E-05  -2.631061E-05   1.445298E-05
   13 C13        -7.653856E-06  -2.517838E-06  -8.394402E-06
   14 C14        -4.020000E-06   1.994808E-05   2.607187E-05
   15 C15        -3.218246E-05   8.236776E-06  -6.306792E-06
   16 H16        -3.000837E-05   2.946188E-06   4.701511E-05
   17 C17         5.036789E-05  -3.439034E-06   7.728059E-05
   18 H18        -1.040549E-05   2.099057E-05   4.616986E-05
   19 C19        -2.289337E-05   8.315481E-06   7.710878E-05
   20 C20        -3.293800E-05   3.505247E-05   5.448857E-05
   21 C21        -2.791770E-05   9.997960E-05  -8.243098E-05
   22 C22         2.410687E-05   5.521735E-05   1.121741E-04
   23 C23         3.155740E-05   4.775857E-05   1.066476E-04
   24 O24        -1.772426E-05   2.857046E-05   5.612254E-05
   25 O25        -3.111017E-05  -2.690604E-05   1.550206E-06
   26 H26        -4.498969E-06   2.870732E-05   4.332169E-05
   27 H27         1.106985E-05   4.111643E-05   3.565439E-05
   28 H28         2.788657E-06   2.735685E-05   5.289334E-05
   29 H29         1.025939E-05   1.576230E-05   5.880675E-05
   30 H30        -3.002848E-05  -1.185916E-05   6.278774E-05
   31 H31        -1.181212E-05   8.707796E-06   3.209389E-05
   32 H32        -6.434956E-06  -4.477278E-06   5.123336E-05
   33 H33        -1.115712E-05  -2.353880E-05   3.753926E-05
   34 H34        -1.818598E-05  -3.827184E-05   2.405388E-05
   35 H35        -2.312752E-05  -2.228678E-05  -7.708341E-06
   36 H36        -2.496597E-05   2.742822E-10  -1.490564E-06
   37 H37        -1.486933E-05  -1.732694E-06   6.464025E-06
   38 H38        -8.081348E-06   1.322456E-05   5.619139E-06
   39 H39        -5.634812E-07   7.990897E-06   2.489075E-05
   40 H40         1.418497E-05  -3.594552E-06   7.507037E-05
   41 H41         2.305901E-05   2.381258E-05   6.515461E-05
   42 H42         1.872566E-05   4.161003E-05   7.684935E-05
   43 H43         3.651976E-05   1.657014E-05   6.545704E-05
   44 H44         6.269566E-06   6.589412E-05  -3.659278E-06
   45 H45        -4.810939E-07   6.333838E-06   4.636246E-05
   46 H46        -2.391244E-05  -5.301113E-05   8.702917E-06
 -------------   -------------  -------------  -------------
     total       -2.016714E-04   4.105147E-04   1.624517E-03
   
  Peak memory usage:   6742 Mb
  
  end of program der1b
   
 Time(der1b)  user:       63.6  user+sys:       63.6  wallclock:        4.5
  
  start of program geopt
  
 ----------------------------------------------------------------------------
  Geometry optimization step 32
  Total energy:      -926.37476396193 hartrees
 ----------------------------------------------------------------------------
  
  energy change:           3.7733E-05 *  (  5.0000E-05 )
  gradient maximum:        8.9593E-05 #  (  4.5000E-04 )
  gradient rms:            2.4469E-05 #  (  3.0000E-04 )
  displacement maximum:    1.2662E-03 *  (  1.8000E-03 )
  displacement rms:        2.9148E-04 *  (  1.2000E-03 )
  
  predicted energy change:  -2.2390E-07
  step size:     0.00358
  trust radius:  0.30000
  
  ********************************************************
  **           Geometry optimization complete           **
  ********************************************************
  
  Checking the geometry optimization convergence pattern ...
  
  WARNING:
  The energy on the last optimization iteration,
     -926.374763961930
  is higher than the energy on one of the previous iterations,
     -926.374801695180
  The difference between these two energies is 0.024 kcal/mole.
  This situation is symptomatic of potential problems with the
  initial and/or the converged structures.
  
  best                    worst
  ==0=====1=====2=====3=====4==
                      ^        
  
  Convergence category 3: convergence to a non-optimal structure.
  The difference between the final and the minimal
  energies is less than 0.100 kcal/mole.
  Geometry optimization was NOT OK.
  
  Number of imaginary frequencies:   0
  
  center of mass moved by:
     x:     0.0000E+00     y:     0.0000E+00     z:     0.0000E+00
  
  final geometry: 
                                   angstroms
  atom               x                 y                 z
  C1            0.1243586133      0.2396190999     -0.9344325170 
  C2            1.5164575048      0.1423773668     -0.2932440844 
  C3            1.5275770516      0.8258095105      1.1062990919 
  C4            1.2499790903     -0.1469887081      2.2721447723 
  C5            2.3020393194     -1.2811160245      2.2828334961 
  H6            3.2958811998     -0.7933393759      2.2107106204 
  C7            2.3168306996     -2.1619657761      3.5339109212 
  C8            2.1656536692     -1.5829315388      4.8060147109 
  C9            2.2208276972     -2.3437332434      5.9733548815 
  C10           2.4418674332     -3.7230827758      5.8788413800 
  C11           2.6124552376     -4.3173328966      4.6266485610 
  C12           2.5575791667     -3.5559450321      3.4536631248 
  C13           2.7481780786     -4.2751530884      2.1244940370 
  C14           3.0737897633     -3.3257660850      0.9602336727 
  C15           2.1016685792     -2.1293388406      1.0069570957 
  H16           1.0786662407     -2.5446912792      1.0532439079 
  C17           2.0845727370     -1.3037296177     -0.2556009028 
  H18           1.8001152942     -1.8904495719     -1.1301561382 
  C19           4.6961343183      1.6316646291      0.0937815776 
  C20           3.5855066125      1.8622065149     -0.8921061009 
  C21           2.7153313981      0.6124650550     -1.2288642033 
  C22           2.5151224762      0.4268438429     -2.6363125210 
  C23           2.3587025459      0.3128254832     -3.8340812506 
  O24           3.5181875239     -0.7713188793     -0.7309631053 
  O25           2.5146318408     -4.5603317813      6.9779833005 
  H26          -0.6281520976     -0.1722445655     -0.2536712295 
  H27           0.0674494767     -0.3035250070     -1.8812137556 
  H28          -0.1404898582      1.2852567673     -1.1226885446 
  H29           0.7912616109      1.6366469559      1.1037020319 
  H30           2.4991382274      1.2894735070      1.3049231278 
  H31           0.2430461889     -0.5805984848      2.2032082782 
  H32           1.2754938332      0.4266934428      3.2023512967 
  H33           2.0090846800     -0.5138305141      4.9019621673 
  H34           2.0980265394     -1.8669894444      6.9410886723 
  H35           2.7959403884     -5.3852942277      4.5866486267 
  H36           1.8327607835     -4.8351983079      1.8801711272 
  H37           3.5415846193     -5.0244403743      2.2237580074 
  H38           2.9985711173     -3.8580301467      0.0041977857 
  H39           4.1087256702     -2.9648041118      1.0462375362 
  H40           5.6457868119      1.2308443117     -0.2520369491 
  H41           4.6687612609      2.0683450193      1.0857020467 
  H42           4.0106936041      2.2183267329     -1.8371047415 
  H43           2.8944084315      2.6342190414     -0.5342576717 
  H44           2.2205317448      0.2155357631     -4.8876123791 
  H45           4.1485915382     -0.5481496514      0.0044047796 
  H46           2.3943591831     -4.0855504708      7.8227750245 
   
  principal moments of inertia:
        amu*angstrom^2:      716.47147     3484.43071     3665.23074
                g*cm^2: 1.18972871E-37 5.78603259E-37 6.08625807E-37
   
  rotational constants:
               cm^(-1):      0.02352868      0.00483799      0.00459934
                   GHz:      0.70537213      0.14503919      0.13788464
   
  nuclear repulsion energy.......    1819.965026259 hartrees
  -------------------------------------------------
 /  end of geometry optimization iteration  32   /
 -------------------------------------------------
   
  Peak memory usage:   4822 Mb
  
  end of program geopt
   
 Time(geopt)  user:       12.8  user+sys:       12.8  wallclock:        1.1
  
  start of program ch
  
  Moments from quantum mechanical wavefunction:
  Dipole Moments  (Debye)
     X=     0.3355     Y=     6.3783     Z=    -7.0295  Tot=     9.4978
  
  gridpoints used for charge fit        21182
    out of a possible maximum of        22467
  
   Electrostatic potential fitting constrained to reproduce
     total charge:                yes
     dipole moment:               yes
     traceless quadrupole moment: no 
     traceless octapole moment:   no 
  
  Atomic charges from electrostatic potential: 
   
 Atom       C1           C2           C3           C4           C5      
 Charge   -0.40482     -0.07028      0.08051     -0.29607      0.24000
   
 Atom       H6           C7           C8           C9           C10     
 Charge   -0.02295     -0.17602     -0.08628     -0.38296      0.54139
   
 Atom       C11          C12          C13          C14          C15     
 Charge   -0.37493      0.12620     -0.11802     -0.12082     -0.09726
   
 Atom       H16          C17          H18          C19          C20     
 Charge    0.10775      0.14089      0.15427     -0.34092      0.18334
   
 Atom       C21          C22          C23          O24          O25     
 Charge    0.39575     -0.16761     -0.16838     -0.47671     -0.66681
   
 Atom       H26          H27          H28          H29          H30     
 Charge    0.15285      0.12732      0.14192      0.05752      0.00462
   
 Atom       H31          H32          H33          H34          H35     
 Charge    0.09349      0.09535      0.14331      0.17313      0.19332
   
 Atom       H36          H37          H38          H39          H40     
 Charge    0.07585      0.08834      0.06694      0.07881      0.15793
   
 Atom       H41          H42          H43          H44          H45     
 Charge    0.15388      0.04256      0.01187      0.28146      0.39051
   
 Atom       H46     
 Charge    0.46977
  
  sum of atomic charges:     1.000000
   
 RMS Error   6.79E-04 hartrees
 
  
  Moments from electrostatic potential charges:
  Dipole Moments  (Debye)
     X=     0.3355     Y=     6.3783     Z=    -7.0295  Tot=     9.4978
  
  Peak memory usage:   4833 Mb
  
  end of program ch
   
 Time(ch)  user:        7.9  user+sys:        7.9  wallclock:        3.6

 Total cpu seconds     user:   12682.269   user+sys:   12682.269
  
 Total elapsed time:    1169 seconds

Job ethynylestradiol_3 completed on n052 at Sun Jan  8 22:44:14 2017
