Job ethynylestradiol_2 started on n051 at Sun Jan  8 22:24:41 2017
jobid: u01-0-58730270

  +--------------------------------------------------------------------+
  |  Jaguar version 9.3, release  15                                   |
  |                                                                    |
  |  Copyright Schrodinger, Inc.                                       |
  |  All Rights Reserved.                                              |
  |                                                                    |
  |  The following have contributed to Jaguar (listed alphabetically): |
  |  Mike Beachy, Art Bochevarov, Dale Braden, Yixiang Cao,            |
  |  Chris Cortis, Rich Friesner, Bill Goddard, Hod Greeley,           |
  |  Tom Hughes, Leif Jacobson, Jean-Marc Langlois,                    |
  |  Daniel Mainz, Rob Murphy, Dean Philipp,                           |
  |  Tom Pollard, Murco Ringnalda, Mark Watson.                        |
  |                                                                    |
  |  Use of this program should be acknowledged in publications as:    |
  |                                                                    |
  |  Jaguar, version 9.3, Schrodinger, Inc., New York, NY, 2016.       |
  |                                                                    |
  |  A. D. Bochevarov, E. Harder, T. F. Hughes, J. R. Greenwood,       |
  |  D. A. Braden, D. M. Philipp, D. Rinaldo, M. D. Halls,             |
  |  J. Zhang, R. A. Friesner, "Jaguar: A High-Performance Quantum     |
  |  Chemistry Software Program with Strengths in Life and Materials   |
  |  Sciences", Int. J. Quantum Chem., 2013, 113(18), 2110-2142.       |
  +--------------------------------------------------------------------+
  
  start of program pre
  
  Job name: ethynylestradiol_2
  Executables used: /home/applications/Schrodinger_Suites_2016-3/jaguar-v9.3/bin/Linux-x86_64
  Temporary files : /scratch/Schrodinger_Suites/pbeni001/ethynylestradiol_2#u01-0-58730270
  Maestro file (input):  ethynylestradiol_2.mae
  Maestro file (output): ethynylestradiol_2.01.mae
  
  basis set:             6-31g                           
  net molecular charge:    1
  multiplicity:            2
  
  Using up to  16 threads per process
  
  number of basis functions....          246
  
 Input geometry:
                                   angstroms
  atom               x                 y                 z
  C1            0.7275452000     -0.0905039000     -0.0176771000 
  C2            2.2107081000      0.1320493000     -0.0450671000 
  C3            2.6297473000      0.6996940000      1.5994178000 
  C4            2.3274611000     -0.1999771000      2.7067669000 
  C5            3.0449021000     -1.5076890000      2.5405764000 
  H6            4.1334298000     -1.4398422000      2.6726931000 
  C7            2.5071398000     -2.4132925000      3.6132727000 
  C8            2.2546344000     -1.8470404000      4.8786832000 
  C9            1.7223822000     -2.5714481000      5.9219234000 
  C10           1.4729558000     -3.9124923000      5.7208244000 
  C11           1.7366528000     -4.5144407000      4.4848103000 
  C12           2.2626461000     -3.7656970000      3.4098645000 
  C13           2.5306023000     -4.3875671000      2.0628484000 
  C14           3.3043705000     -3.4403997000      1.0219955000 
  C15           2.8580977000     -1.8846619000      1.0900990000 
  H16           1.7896588000     -2.0246085000      0.8590111000 
  C17           3.5030825000     -0.4813745000      0.0768787000 
  H18           3.6839923000     -1.0957278000     -0.8123420000 
  C19           3.5587382000      1.5130592000     -0.1919352000 
  C20           2.6741086000      1.9728074000     -1.4161758000 
  C21           2.7658991000      0.5699760000     -1.7038558000 
  C22           4.2512300000      0.4112661000     -2.2335021000 
  C23           5.3405540000      0.3371477000     -2.6859360000 
  O24           1.9775849000     -0.0185886000     -2.6809395000 
  O25           0.9717744000     -4.6768748000      6.7321391000 
  H26           0.3721855000     -0.6423615000      0.8480417000 
  H27           0.3344376000     -0.5868615000     -0.8971248000 
  H28           0.2595314000      0.9006843000      0.0382482000 
  H29           2.1792911000      1.6524597000      1.8698773000 
  H30           3.7543206000      0.8072112000      1.7370716000 
  H31           1.2454602000     -0.2970773000      2.7490057000 
  H32           2.7084858000      0.3379419000      3.5755180000 
  H33           2.4497031000     -0.7970092000      5.0661430000 
  H34           1.5292710000     -2.0532531000      6.8528581000 
  H35           1.5266325000     -5.5751859000      4.3766049000 
  H36           1.5671491000     -4.7248277000      1.6490303000 
  H37           3.1119695000     -5.3099008000      2.2356856000 
  H38           3.1422462000     -3.9016095000      0.0368807000 
  H39           4.3670856000     -3.5384611000      1.2631541000 
  H40           4.5186535000      2.0227829000     -0.0786623000 
  H41           2.9736911000      2.2333556000      0.4488841000 
  H42           3.1173614000      2.7154167000     -2.0809254000 
  H43           1.6190122000      2.2525686000     -1.2299440000 
  H44           6.2614509000      0.2149903000     -3.2441063000 
  H45           1.5641352000     -0.7676540000     -2.2301968000 
  H46           0.8581682000     -4.1128118000      7.5164138000 
   
  principal moments of inertia:
        amu*angstrom^2:      659.11750     3617.24667     3839.89173
                g*cm^2: 1.09449022E-37 6.00657867E-37 6.37628944E-37
   
  rotational constants:
               cm^(-1):      0.02557606      0.00466035      0.00439013
                   GHz:      0.76675101      0.13971372      0.13161283
   
  Molecular weight:     296.18 amu
   
  Stoichiometry: C20H24O2
  Molecular Point Group: C1      
  Point Group used: C1
  
 
Number of optimization coordinates:   151
Number of independent coordinates:    151
Number of non-redundant coordinates:  132
Number of frozen coordinates:           0
Number of harmonic constraints:         0
 
Number of geometric degrees of freedom:   132
Maximum geometric degrees of freedom:     132
 " " " " " excluding dummy atoms:         132
 
  nuclear repulsion energy.......    1823.721074013 hartrees
 
 Non-default options chosen:
   SCF calculation type: UDFT(b3lyp)                 
   UDFT=Becke_3_Parameter/HF+Slater+Becke88+VWN+LYP (B3LYP)
   Geometry will be optimized in redundant internal coordinates
   Electrostatic potential fit to point charges on atomic centers
   Electrostatic potential fitting constrained to reproduce
     total charge:                yes
     dipole moment:               yes
     traceless quadrupole moment: no 
     traceless octapole moment:   no 
  
 Temporary integer options set:
     73=  2
  
  Peak memory usage:   4803 Mb
  
  end of program pre
   
 Time(pre)  user:        6.8  user+sys:        6.8  wallclock:        0.9
  
  start of program onee
  
  smallest eigenvalue of S:    4.818E-04
  number of canonical orbitals.....          245
  Peak memory usage:   4838 Mb
  
  end of program onee
   
 Time(onee)  user:        3.5  user+sys:        3.5  wallclock:        0.5
  
  start of program hfig
  
  initial wavefunction generated automatically from atomic wavefunctions
  
  -------------------
  Alpha orbital space
  -------------------
 
  Irreducible     Total no   No of occupied orbitals 
  representation  orbitals   Shell_1  Shell_2    ...
  No Symm          245         80
  ------------------------
  Orbital occupation/shell    1.000
 
  ------------------
  Beta orbital space
  ------------------
 
  Irreducible     Total no   No of occupied orbitals 
  representation  orbitals   Shell_1  Shell_2    ...
  No Symm          245         79
  ------------------------
  Orbital occupation/shell    1.000
 
  
  
    Unrestricted Spin Properties ...
    Sz*(Sz+1) ..............     0.750
    <S**2> of initial guess      0.750
  
  
  Peak memory usage:   4756 Mb
  
  end of program hfig
   
 Time(hfig)  user:        5.1  user+sys:        5.1  wallclock:        0.7
  
  start of program probe
  
  Peak memory usage:   4756 Mb
  
  end of program probe
   
 Time(probe)  user:        2.4  user+sys:        2.4  wallclock:        0.5
  
  start of program grid
  
   grid     grid set  grid #  grid sym
  ------    --------  ------  --------
  coarse        0        0        1
  medium        2        1        1
  fine          0        0        1
  ultrafine     4        2        1
  charge       -1        3        1
  gradient      4        2        1
  density       0        0        1
  DFT-fine    -11        4        1
  DFT-med.    -10        5        1
  DFT-grad    -12        6        1
  DFT-der2      0        0        1
  DFT-cphf      0        0        1
  LMP2-enrg     4        2        1
  LMP2-grad     2        1        1
  DFT-cphf2     0        0        1
  PBF-dens      0        0        1
  plotting      0        0        1
  Rel-grad    -17        0        1
  
  number of gridpoints: 
     atom        C1       C2       C3       C4       C5       H6       C7
  grid # 1       78       94       82       81       89      109       96
  grid # 2      263      340      293      277      307      428      359
  grid # 3        6        6        6        6        6      695       86
  grid # 4     4304     4304     4304     4304     4304     4304     4304
  grid # 5     1192     1192     1192     1192     1192     1192     1192
  grid # 6     5226     5226     5226     5226     5226     5226     5226
   
  number of gridpoints: 
     atom        C8       C9      C10      C11      C12      C13      C14
  grid # 1       95       95       97       97       97       86       85
  grid # 2      336      335      351      336      361      293      295
  grid # 3      159      219      238      212      134        6        6
  grid # 4     4304     4304     4304     4304     4304     4304     4304
  grid # 5     1192     1192     1192     1192     1192     1192     1192
  grid # 6     5226     5226     5226     5226     5226     5226     5226
   
  number of gridpoints: 
     atom       C15      H16      C17      H18      C19      C20      C21
  grid # 1       96      100       92      103       85       85       93
  grid # 2      330      403      346      414      297      287      334
  grid # 3        6      240       76      420        6        6        6
  grid # 4     4304     4304     4304     4304     4304     4304     4304
  grid # 5     1192     1192     1192     1192     1192     1192     1192
  grid # 6     5226     5226     5226     5226     5226     5226     5226
   
  number of gridpoints: 
     atom       C22      C23      O24      O25      H26      H27      H28
  grid # 1      100       99      112      114      100      103      106
  grid # 2      393      389      429      427      408      418      425
  grid # 3      123      431      748      832      511      671      738
  grid # 4     4304     4304     4304     4304     4304     4304     4304
  grid # 5     1192     1192     1192     1192     1192     1192     1192
  grid # 6     5226     5226     5226     5226     5226     5226     5226
   
  number of gridpoints: 
     atom       H29      H30      H31      H32      H33      H34      H35
  grid # 1      102      100      106      104      107      116      116
  grid # 2      414      409      415      407      426      439      446
  grid # 3      611      408      527      514      703     1124     1087
  grid # 4     4304     4304     4304     4304     4304     4304     4304
  grid # 5     1192     1192     1192     1192     1192     1192     1192
  grid # 6     5226     5226     5226     5226     5226     5226     5226
   
  number of gridpoints: 
     atom       H36      H37      H38      H39      H40      H41      H42
  grid # 1      110      110      111      110      111       99      112
  grid # 2      438      434      440      437      435      395      445
  grid # 3      890      903      886      839      871      376     1074
  grid # 4     4304     4304     4304     4304     4304     4304     4304
  grid # 5     1192     1192     1192     1192     1192     1192     1192
  grid # 6     5226     5226     5226     5226     5226     5226     5226
   
  number of gridpoints: 
     atom       H43      H44      H45      H46    total
  grid # 1      107      120      106      112     4628
  grid # 2      426      467      417      442    17606
  grid # 3      673     1835      669     1250    21839
  grid # 4     4304     4304     4304     4304   197984
  grid # 5     1192     1192     1192     1192    54832
  grid # 6     5226     5226     5226     5226   240396
   
  Peak memory usage:   4790 Mb
  
  end of program grid
   
 Time(grid)  user:       27.9  user+sys:       27.9  wallclock:        2.6
  
  start of program rwr
  
  Peak memory usage:   4745 Mb
  
  end of program rwr
   
 Time(rwr)  user:       56.0  user+sys:       56.0  wallclock:        5.4
  
  start of program scf
  
 number of electrons..........        159
 number of alpha electrons....         80
 number of beta electrons.....         79
 number of alpha orbitals.....        245
 number of beta orbitals......        245
 number of alpha occupied orb..        80
 number of alpha virtual orb...       165
 number of beta occupied orb...        79
 number of beta virtual orb....       166
 SCF type: UDFT=Becke_3_Parameter/HF+Slater+Becke88+VWN+LYP (B3LYP)
 Energy computed with NOPS off.
  
       i  u  d  i  g                   
       t  p  i  c  r                                 RMS    maximum
       e  d  i  u  i                       energy  density   DIIS  
       r  t  s  t  d       total energy    change  change    error 
  
etot    1  N  N  5  M    -922.69540743488           1.9E-02  1.2E-01
etot    2  Y  Y  6  M    -913.18046178270 -9.5E+00  2.3E-02  5.1E-01
etot    3  Y  Y  6  M    -917.33769826101  4.2E+00  1.9E-02  2.4E-01
etot    4  N  Y  2  U    -921.50808340232  4.2E+00  1.7E-02  1.4E-01
etot    5  Y  Y  6  M    -923.27091961343  1.8E+00  9.3E-03  1.6E-01
etot    6  N  Y  2  U    -925.66206994436  2.4E+00  3.1E-03  5.8E-02
etot    7  Y  Y  6  M    -925.80522061612  1.4E-01  1.3E-03  2.2E-02
etot    8  N  Y  2  U    -925.83663508462  3.1E-02  5.6E-04  1.3E-02
etot    9  Y  Y  6  M    -925.84646203913  9.8E-03  4.8E-04  5.9E-03
etot   10  N  Y  2  U    -925.85085166546  4.4E-03  3.7E-04  3.7E-03
etot   11  Y  Y  6  M    -925.85260103081  1.7E-03  6.5E-04  2.2E-03
etot   12  N  Y  2  U    -925.85323322353  6.3E-04  2.6E-04  1.6E-03
etot   13  Y  Y  6  M    -925.85326459723  3.1E-05  5.6E-05  3.2E-03
etot   14  Y  Y  6  M    -925.85334442095  8.0E-05  5.8E-05  3.3E-03
etot   15  Y  Y  6  M    -925.85356724656  2.2E-04  1.9E-04  2.5E-03
etot   16  Y  Y  6  M    -925.85391275257  3.5E-04  9.9E-05  1.3E-03
etot   17  N  Y  2  U    -925.85394466759  3.2E-05  3.0E-05  1.7E-04
etot   18  N  Y  2  U    -925.85394957271  4.9E-06  1.6E-05  1.5E-04
etot   19  N  Y  2  U    -925.85395288704  3.3E-06  2.4E-05  1.6E-04
etot   20  N  Y  2  U    -925.85395731516  4.4E-06  2.4E-05  1.1E-04
etot   21  N  Y  2  U    -925.85396053750  3.2E-06  2.2E-05  9.1E-05
etot   22  N  Y  2  U    -925.85396259601  2.1E-06  1.9E-05  3.8E-05
etot   23  N  Y  2  U    -925.85396318418  5.9E-07  4.2E-06  4.6E-05
etot   24  N  N  2  U    -925.85396332166  1.4E-07  0.0E+00  0.0E+00
  
  
 Energy components, in hartrees:
   (A)  Nuclear repulsion............    1823.72107401301
   (E)  Total one-electron terms.....   -4856.80299203567
   (I)  Total two-electron terms.....    2107.22795470101
   (L)  Electronic energy............   -2749.57503733466  (E+I)
   (N)  Total energy.................    -925.85396332166  (A+L)
   (O)  Gas phase energy.............    -925.85396332166
  
                                 Total             Coulomb       Exchange+Corr.
 Total two-electron terms    2107.22795470101    2241.65819668676    -134.43024198575
   Hamiltonian  1........    1079.96533468881    1127.83502177528     -47.86968708647
   Hamiltonian  2........    1066.36003531126    1113.82317491147     -47.46313960022
  
 SCFE: SCF energy: UDFT(b3lyp)      -925.85396332166 hartrees   iterations:  24
  
 
 Alpha HOMO energy:    -0.32738
 Alpha LUMO energy:    -0.23909
 
  Alpha Orbital energies (hartrees): 
   -19.30635   -19.27777   -10.45270   -10.41698   -10.39293   -10.39130
   -10.35807   -10.35658   -10.34957   -10.34320   -10.33494   -10.31321
   -10.31125   -10.30930   -10.30789   -10.30636   -10.30336   -10.30243
   -10.30143   -10.29572   -10.29201   -10.28887    -1.21580    -1.17842
    -1.07426    -1.00070    -0.97302    -0.93767    -0.91758    -0.89567
    -0.88862    -0.87842    -0.85303    -0.84126    -0.82255    -0.76417
    -0.75102    -0.74526    -0.74181    -0.71418    -0.70421    -0.68935
    -0.67915    -0.66690    -0.64531    -0.63770    -0.63030    -0.62214
    -0.61120    -0.59751    -0.58693    -0.58220    -0.58097    -0.57019
    -0.55800    -0.55123    -0.54272    -0.53348    -0.53091    -0.52370
    -0.52208    -0.51665    -0.50774    -0.49620    -0.48818    -0.48162
    -0.47185    -0.46025    -0.45705    -0.45033    -0.44569    -0.43285
    -0.42671    -0.41867    -0.40730    -0.39454    -0.37601    -0.36288
    -0.35401    -0.32738    -0.23909    -0.17921    -0.11321    -0.09520
    -0.09127    -0.08016    -0.07227    -0.05047    -0.04620    -0.03084
 
 
 Beta HOMO energy:    -0.31782
 Beta LUMO energy:    -0.29762
 
  Beta Orbital energies (hartrees): 
   -19.30551   -19.27661   -10.45043   -10.41363   -10.39371   -10.38617
   -10.35756   -10.35404   -10.34836   -10.34273   -10.33480   -10.31341
   -10.31111   -10.30894   -10.30763   -10.30644   -10.30317   -10.30233
   -10.30059   -10.29570   -10.29175   -10.28856    -1.21320    -1.17600
    -1.06642    -0.99886    -0.97039    -0.93370    -0.91584    -0.89015
    -0.88720    -0.87724    -0.85070    -0.83949    -0.82078    -0.76135
    -0.74962    -0.74401    -0.73648    -0.71255    -0.69951    -0.68731
    -0.67736    -0.66212    -0.64177    -0.63635    -0.62579    -0.62010
    -0.60911    -0.59485    -0.58424    -0.57958    -0.57796    -0.56847
    -0.55443    -0.54961    -0.54123    -0.53212    -0.52905    -0.52193
    -0.51858    -0.51311    -0.50405    -0.49318    -0.48595    -0.47953
    -0.46712    -0.45768    -0.45554    -0.44806    -0.44453    -0.43073
    -0.42242    -0.41653    -0.40500    -0.39331    -0.36845    -0.35286
    -0.31782    -0.29762    -0.22928    -0.16203    -0.11090    -0.09175
    -0.08791    -0.07817    -0.06933    -0.04889    -0.04157
 
  
  
    Unrestricted Spin Properties ...
    Sz*(Sz+1)      0.750
    <S**2> ...     0.760
  
  
  Peak memory usage:   6749 Mb
  
  end of program scf
   
 Time(scf)  user:      485.4  user+sys:      485.4  wallclock:       33.7
  
  start of program der1a
  
  Peak memory usage:   4838 Mb
  
  end of program der1a
   
 Time(der1a)  user:        1.6  user+sys:        1.6  wallclock:        0.5
  
  start of program rwr
  
  Peak memory usage:   4745 Mb
  
  end of program rwr
   
 Time(rwr)  user:       43.5  user+sys:       43.5  wallclock:        6.3
  
  start of program der1b
  
   
  forces (hartrees/bohr) : total     
   
 atom  label           x              y              z
 ---- --------   -------------  -------------  -------------
    1 C1         -1.019782E-02   1.109909E-02  -4.199635E-03
    2 C2          1.138278E-02   9.974798E-03   3.382580E-02
    3 C3          1.635025E-03   3.045168E-02   5.724654E-02
    4 C4         -1.452442E-02   5.577374E-03  -1.427258E-03
    5 C5         -2.814038E-03  -6.259959E-03   7.051831E-03
    6 H6          1.138567E-03   9.746315E-03   3.296008E-03
    7 C7          3.485655E-03   2.847311E-03   7.067138E-03
    8 C8         -5.277333E-04   7.763196E-03   5.596482E-04
    9 C9          8.626106E-03   2.052575E-02  -2.055506E-03
   10 C10         1.072603E-04  -1.523633E-02  -8.316934E-03
   11 C11         2.541927E-03  -5.166362E-03  -8.405293E-03
   12 C12        -8.302460E-03  -8.123767E-03   9.827544E-03
   13 C13        -2.059558E-03   7.915646E-03  -4.674510E-03
   14 C14         9.797555E-03   1.629309E-03  -4.519356E-03
   15 C15         2.946576E-02  -5.621946E-02   3.725875E-02
   16 H16         4.435587E-03   1.923389E-02  -7.995263E-03
   17 C17        -3.026948E-02  -1.335133E-01  -9.560216E-03
   18 H18         3.077780E-02   1.006107E-02   1.352687E-03
   19 C19        -3.265948E-03   1.399672E-01   7.387424E-03
   20 C20         6.372732E-03   2.390035E-02  -1.919039E-02
   21 C21         3.262690E-02   1.973947E-02  -1.016046E-01
   22 C22        -1.031331E-01  -7.966226E-03   4.867813E-02
   23 C23         7.231435E-02  -9.346666E-03  -4.368791E-02
   24 O24        -2.206653E-02  -8.705516E-03   5.991938E-03
   25 O25        -4.193860E-03  -8.157918E-03   2.863122E-03
   26 H26         3.170152E-03  -7.419762E-05   3.212963E-03
   27 H27        -3.002883E-03  -2.731094E-03  -6.457643E-03
   28 H28        -3.856166E-03  -1.428982E-03  -2.641736E-03
   29 H29        -8.540379E-03   6.897727E-03  -9.632887E-03
   30 H30        -2.740544E-02   5.728330E-03  -1.276215E-02
   31 H31        -4.466659E-03  -1.025203E-02   1.509129E-02
   32 H32        -6.504017E-03   3.246321E-03   5.531967E-03
   33 H33         4.595442E-04  -2.361681E-03  -7.888741E-04
   34 H34        -1.639752E-03  -4.339575E-03   4.505639E-03
   35 H35         4.897314E-04   1.192722E-03   1.619216E-04
   36 H36         2.403537E-03   2.247841E-03  -4.121779E-03
   37 H37         1.791207E-03   4.767643E-03  -7.902255E-03
   38 H38         2.486009E-03   6.718046E-03  -4.061430E-04
   39 H39         2.861590E-03   2.878567E-03  -2.580101E-03
   40 H40         1.838986E-02  -2.670178E-02  -9.569412E-03
   41 H41         2.142013E-02  -2.518866E-02   8.578287E-03
   42 H42         3.577387E-03  -5.232161E-03  -4.286211E-03
   43 H43         1.174673E-02   4.213064E-03   1.284010E-02
   44 H44        -9.056891E-03   3.583643E-03   1.046946E-02
   45 H45        -1.344386E-02  -2.014018E-02  -1.555301E-02
   46 H46        -3.778794E-03  -4.257786E-03   9.194867E-03
 -------------   -------------  -------------  -------------
     total        4.541106E-04   5.027418E-04  -3.459632E-04
   
  Peak memory usage:   6742 Mb
  
  end of program der1b
   
 Time(der1b)  user:       67.3  user+sys:       67.3  wallclock:        4.7
  
  start of program geopt
  
 ----------------------------------------------------------------------------
  Geometry optimization step  1
  Total energy:      -925.85396332166 hartrees
 ----------------------------------------------------------------------------
  
  
  Level shifts adjusted to satisfy step-size constraints
   Step size:    0.3000841
   Cos(theta):   0.8454271
   Final level shift:  -9.5974239E-01
  
  gradient maximum:        2.6457E-01 .  (  4.5000E-04 )
  gradient rms:            4.6949E-02 .  (  3.0000E-04 )
  displacement maximum:    8.6770E-02 .  (  1.8000E-03 )
  displacement rms:        2.0485E-02 .  (  1.2000E-03 )
  
  predicted energy change:  -1.0169E-01
  step size:     0.25172
  trust radius:  0.30000
  
  molecular structure not yet converged...
  
  center of mass moved by:
     x:    -3.0970E-02     y:    -3.6662E-02     z:     1.1691E-02
  
  new geometry: 
                                   angstroms
  atom               x                 y                 z
  C1            0.7091654927      0.0419088211     -0.0425965524 
  C2            2.1972531578      0.2607192892     -0.0040064421 
  C3            2.5827289740      0.8243942035      1.6659434016 
  C4            2.2434257527     -0.0954623366      2.7767175192 
  C5            2.9928023598     -1.4076163062      2.6428584109 
  H6            4.0727616102     -1.3060177720      2.8215052779 
  C7            2.4785028067     -2.3771280514      3.6840187148 
  C8            2.1528322344     -1.8863385788      4.9665411993 
  C9            1.6461043827     -2.7029355011      5.9596554418 
  C10           1.5001022982     -4.0567820381      5.6911384245 
  C11           1.8406251836     -4.5786150774      4.4389188114 
  C12           2.3365514278     -3.7420602723      3.4199352708 
  C13           2.6862223045     -4.3059656267      2.0633044801 
  C14           3.4234861081     -3.2934784407      1.0742204440 
  C15           2.8619929898     -1.7915281244      1.1847419764 
  H16           1.8067366581     -1.9300172929      0.9054559251 
  C17           3.4855754714     -0.4097116945      0.1513803582 
  H18           3.7332943394     -0.9928988255     -0.7419116229 
  C19           3.7410388625      1.5949076189     -0.3451252962 
  C20           2.8116708567      2.0291459091     -1.5544998424 
  C21           2.7178392139      0.5861713320     -1.7296300078 
  C22           4.1282847969      0.2169692315     -2.3102048823 
  C23           5.1864419274     -0.0226465820     -2.8214926128 
  O24           1.8430710765     -0.0310192524     -2.6310689657 
  O25           1.0268494742     -4.9184758723      6.6441918186 
  H26           0.3197890020     -0.5096918318      0.8092141440 
  H27           0.3527903299     -0.4544911013     -0.9406370387 
  H28           0.2361108721      1.0318626147     -0.0112311421 
  H29           2.1104087146      1.7749509195      1.9157312317 
  H30           3.6943101241      0.9520499199      1.8083250971 
  H31           1.1611137172     -0.2142289646      2.8056325738 
  H32           2.5833164072      0.4439008945      3.6630598386 
  H33           2.2735816415     -0.8365135401      5.2059977744 
  H34           1.3883581006     -2.2555593474      6.9122497931 
  H35           1.7130853121     -5.6451023363      4.2764868206 
  H36           1.7638772210     -4.6964016496      1.6059935056 
  H37           3.3285179169     -5.1884082513      2.2183954986 
  H38           3.3230720582     -3.7300728650      0.0709217540 
  H39           4.4850774815     -3.3255647981      1.3398852252 
  H40           4.7663417384      1.9754563287     -0.3490917261 
  H41           3.3216705466      2.4172855576      0.2883158420 
  H42           3.3043890854      2.6366665262     -2.3149922967 
  H43           1.8255979172      2.4635495476     -1.3116115300 
  H44           6.0508218820     -0.2961144096     -3.4068952564 
  H45           1.4043435940     -0.7414147653     -2.1348670419 
  H46           0.8420925806     -4.4210779179      7.4613800454 
   
  nuclear repulsion energy.......    1807.219984980 hartrees
  -------------------------------------------------
 /  end of geometry optimization iteration   1   /
 -------------------------------------------------
   
  Peak memory usage:   4727 Mb
  
  end of program geopt
   
 Time(geopt)  user:        6.6  user+sys:        6.6  wallclock:        0.5
  
  start of program onee
  
  smallest eigenvalue of S:    4.984E-04
  number of canonical orbitals.....          245
  Peak memory usage:   4838 Mb
  
  end of program onee
   
 Time(onee)  user:        2.5  user+sys:        2.5  wallclock:        0.5
  
  start of program probe
  
  Peak memory usage:   4756 Mb
  
  end of program probe
   
 Time(probe)  user:        2.3  user+sys:        2.3  wallclock:        0.4
  
  start of program grid
  
   grid     grid set  grid #  grid sym
  ------    --------  ------  --------
  coarse        0        0        1
  medium        2        1        1
  fine          0        0        1
  ultrafine     4        2        1
  charge       -1        3        1
  gradient      4        2        1
  density       0        0        1
  DFT-fine    -11        4        1
  DFT-med.    -10        5        1
  DFT-grad    -12        6        1
  DFT-der2      0        0        1
  DFT-cphf      0        0        1
  LMP2-enrg     4        2        1
  LMP2-grad     2        1        1
  DFT-cphf2     0        0        1
  PBF-dens      0        0        1
  plotting      0        0        1
  Rel-grad    -17        0        1
  
  number of gridpoints: 
     atom        C1       C2       C3       C4       C5       H6       C7
  grid # 1       78       98       84       84       90      108       98
  grid # 2      263      350      299      281      310      431      358
  grid # 3        6        6        6        6        6      691       90
  grid # 4     4304     4304     4304     4304     4304     4304     4304
  grid # 5     1192     1192     1192     1192     1192     1192     1192
  grid # 6     5226     5226     5226     5226     5226     5226     5226
   
  number of gridpoints: 
     atom        C8       C9      C10      C11      C12      C13      C14
  grid # 1       96       97       97       97       99       86       86
  grid # 2      337      333      354      336      361      292      294
  grid # 3      167      224      240      213      142        6        6
  grid # 4     4304     4304     4304     4304     4304     4304     4304
  grid # 5     1192     1192     1192     1192     1192     1192     1192
  grid # 6     5226     5226     5226     5226     5226     5226     5226
   
  number of gridpoints: 
     atom       C15      H16      C17      H18      C19      C20      C21
  grid # 1       94      101       93      104       86       83       95
  grid # 2      329      407      351      410      306      290      335
  grid # 3        6      264       65      369        6        6        6
  grid # 4     4304     4304     4304     4304     4304     4304     4304
  grid # 5     1192     1192     1192     1192     1192     1192     1192
  grid # 6     5226     5226     5226     5226     5226     5226     5226
   
  number of gridpoints: 
     atom       C22      C23      O24      O25      H26      H27      H28
  grid # 1      100       99      112      114      102      101      106
  grid # 2      386      386      428      427      409      404      428
  grid # 3      112      412      729      831      536      613      785
  grid # 4     4304     4304     4304     4304     4304     4304     4304
  grid # 5     1192     1192     1192     1192     1192     1192     1192
  grid # 6     5226     5226     5226     5226     5226     5226     5226
   
  number of gridpoints: 
     atom       H29      H30      H31      H32      H33      H34      H35
  grid # 1      105      102      107      106      108      117      115
  grid # 2      422      415      420      413      429      440      446
  grid # 3      675      440      548      549      743     1141     1068
  grid # 4     4304     4304     4304     4304     4304     4304     4304
  grid # 5     1192     1192     1192     1192     1192     1192     1192
  grid # 6     5226     5226     5226     5226     5226     5226     5226
   
  number of gridpoints: 
     atom       H36      H37      H38      H39      H40      H41      H42
  grid # 1      110      110      111      110      113      103      112
  grid # 2      435      434      436      437      438      412      445
  grid # 3      888      895      854      826      932      483     1067
  grid # 4     4304     4304     4304     4304     4304     4304     4304
  grid # 5     1192     1192     1192     1192     1192     1192     1192
  grid # 6     5226     5226     5226     5226     5226     5226     5226
   
  number of gridpoints: 
     atom       H43      H44      H45      H46    total
  grid # 1      108      120      106      113     4664
  grid # 2      428      466      411      446    17668
  grid # 3      741     1815      647     1273    22134
  grid # 4     4304     4304     4304     4304   197984
  grid # 5     1192     1192     1192     1192    54832
  grid # 6     5226     5226     5226     5226   240396
   
  Peak memory usage:   4790 Mb
  
  end of program grid
   
 Time(grid)  user:       30.6  user+sys:       30.6  wallclock:        2.6
  
  start of program rwr
  
  Peak memory usage:   4745 Mb
  
  end of program rwr
   
 Time(rwr)  user:       57.9  user+sys:       57.9  wallclock:        5.6
  
  start of program scf
  
 Energy computed with NOPS off.
  
       i  u  d  i  g                   
       t  p  i  c  r                                 RMS    maximum
       e  d  i  u  i                       energy  density   DIIS  
       r  t  s  t  d       total energy    change  change    error 
  
etot    1  N  N  2  U    -925.87580869849           1.9E-03  1.5E-02
etot    2  Y  Y  6  M    -925.94741118463  7.2E-02  1.2E-03  3.5E-03
etot    3  N  Y  2  U    -925.93591569946 -1.1E-02  1.4E-03  2.7E-02
etot    4  N  Y  2  U    -925.94794731416  1.2E-02  5.0E-04  9.3E-03
etot    5  Y  Y  6  M    -925.95141456427  3.5E-03  8.6E-05  9.1E-04
etot    6  Y  Y  6  M    -925.95145636734  4.2E-05  4.4E-05  6.6E-04
etot    7  N  Y  2  U    -925.95143578266 -2.1E-05  3.7E-05  5.5E-04
etot    8  N  Y  2  U    -925.95146420937  2.8E-05  4.3E-05  3.0E-04
etot    9  N  Y  2  U    -925.95148634983  2.2E-05  4.9E-05  2.2E-04
etot   10  N  Y  2  U    -925.95150493169  1.9E-05  3.2E-05  1.8E-04
etot   11  N  Y  2  U    -925.95151445629  9.5E-06  3.8E-05  1.4E-04
etot   12  N  Y  2  U    -925.95152263670  8.2E-06  3.2E-05  1.0E-04
etot   13  N  Y  2  U    -925.95152626032  3.6E-06  1.5E-05  4.8E-05
etot   14  N  Y  2  U    -925.95152713354  8.7E-07  6.9E-06  2.3E-05
etot   15  N  Y  2  U    -925.95152729068  1.6E-07  3.6E-06  2.0E-05
etot   16  N  N  2  U    -925.95152732902  3.8E-08  0.0E+00  0.0E+00
  
  
 Energy components, in hartrees:
   (A)  Nuclear repulsion............    1807.21998497974
   (E)  Total one-electron terms.....   -4824.41391949320
   (I)  Total two-electron terms.....    2091.24240718444
   (L)  Electronic energy............   -2733.17151230877  (E+I)
   (N)  Total energy.................    -925.95152732902  (A+L)
   (O)  Gas phase energy.............    -925.95152732902
  
                                 Total             Coulomb       Exchange+Corr.
 Total two-electron terms    2091.24240718444    2225.53417350297    -134.29176631853
   Hamiltonian  1........    1071.84509719913    1119.66579113172     -47.82069393259
   Hamiltonian  2........    1058.45792951528    1105.86838237125     -47.41045285596
  
 SCFE: SCF energy: UDFT(b3lyp)      -925.95152732902 hartrees   iterations:  16
  
 
 Alpha HOMO energy:    -0.33351
 Alpha LUMO energy:    -0.22952
 
  Alpha Orbital energies (hartrees): 
   -19.29945   -19.28471   -10.44606   -10.41037   -10.38883   -10.37560
   -10.36523   -10.34942   -10.34603   -10.34223   -10.33260   -10.31573
   -10.31424   -10.31183   -10.31178   -10.30996   -10.30975   -10.30533
   -10.30364   -10.30212   -10.29867   -10.29400    -1.20261    -1.18132
    -1.04076    -0.99564    -0.96881    -0.93235    -0.91465    -0.88334
    -0.88080    -0.87477    -0.85342    -0.83806    -0.81377    -0.76289
    -0.75025    -0.74057    -0.73725    -0.71354    -0.70017    -0.68806
    -0.67614    -0.65719    -0.64096    -0.63351    -0.62150    -0.61716
    -0.60583    -0.59571    -0.58151    -0.57805    -0.57468    -0.56855
    -0.55040    -0.54430    -0.54301    -0.53375    -0.53233    -0.52144
    -0.51826    -0.51372    -0.50802    -0.49397    -0.48906    -0.48276
    -0.46700    -0.46095    -0.45891    -0.45195    -0.44984    -0.43235
    -0.42957    -0.42632    -0.40564    -0.38900    -0.37954    -0.36182
    -0.35831    -0.33351    -0.22952    -0.17926    -0.11744    -0.10108
    -0.08504    -0.07516    -0.06229    -0.04664    -0.04221    -0.03109
 
 
 Beta HOMO energy:    -0.32155
 Beta LUMO energy:    -0.30004
 
  Beta Orbital energies (hartrees): 
   -19.29845   -19.28326   -10.44386   -10.40625   -10.38668   -10.37444
   -10.36456   -10.34763   -10.34551   -10.34110   -10.33247   -10.31561
   -10.31446   -10.31187   -10.31161   -10.30942   -10.30883   -10.30492
   -10.30353   -10.30210   -10.29836   -10.29362    -1.19980    -1.17829
    -1.03311    -0.99372    -0.96622    -0.92814    -0.91320    -0.88110
    -0.87794    -0.87292    -0.85048    -0.83648    -0.81089    -0.76028
    -0.74890    -0.73841    -0.73351    -0.71192    -0.69544    -0.68599
    -0.67340    -0.65359    -0.63956    -0.63032    -0.61978    -0.61229
    -0.60388    -0.59323    -0.57892    -0.57577    -0.57236    -0.56619
    -0.54866    -0.54262    -0.53978    -0.53198    -0.53047    -0.51792
    -0.51597    -0.50938    -0.50474    -0.49204    -0.48645    -0.48084
    -0.46203    -0.45927    -0.45523    -0.45009    -0.44811    -0.42914
    -0.42561    -0.42358    -0.40215    -0.38814    -0.37361    -0.35686
    -0.32155    -0.30004    -0.22207    -0.15966    -0.11463    -0.09556
    -0.08329    -0.07273    -0.05978    -0.04524    -0.03917
 
  
  
    Unrestricted Spin Properties ...
    Sz*(Sz+1)      0.750
    <S**2> ...     0.754
  
  
  Peak memory usage:   6749 Mb
  
  end of program scf
   
 Time(scf)  user:      407.6  user+sys:      407.6  wallclock:       28.7
  
  start of program der1a
  
  Peak memory usage:   4838 Mb
  
  end of program der1a
   
 Time(der1a)  user:        1.9  user+sys:        1.9  wallclock:        0.5
  
  start of program rwr
  
  Peak memory usage:   4745 Mb
  
  end of program rwr
   
 Time(rwr)  user:       42.6  user+sys:       42.6  wallclock:        6.2
  
  start of program der1b
  
   
  forces (hartrees/bohr) : total     
   
 atom  label           x              y              z
 ---- --------   -------------  -------------  -------------
    1 C1         -8.318807E-03   6.759288E-03   1.353209E-03
    2 C2          1.657314E-02  -3.378757E-03   3.113825E-02
    3 C3          8.356129E-04   3.302734E-02   2.675973E-02
    4 C4         -9.587985E-03   5.583497E-03  -1.657526E-03
    5 C5         -2.896422E-03  -3.449535E-03   5.635591E-03
    6 H6          6.419333E-04   9.935123E-03   1.273197E-03
    7 C7         -5.460116E-06   4.076926E-03   2.454205E-03
    8 C8         -2.354645E-03   4.719008E-03   8.932124E-05
    9 C9          6.309002E-03   1.569499E-02  -1.383695E-03
   10 C10        -1.993534E-04  -1.066601E-02  -3.622223E-03
   11 C11         3.480221E-03  -2.551520E-03  -8.021736E-03
   12 C12        -6.637161E-03  -7.949066E-03   6.387502E-03
   13 C13        -1.086849E-03   6.736205E-03  -5.594698E-03
   14 C14         4.461839E-03   4.944245E-03  -2.090017E-03
   15 C15         3.541143E-02  -4.056259E-02   2.398846E-02
   16 H16         3.428648E-03   1.410350E-02  -5.319232E-03
   17 C17        -3.970008E-02  -9.588070E-02  -1.229435E-02
   18 H18         2.349381E-02   7.836891E-03   7.138477E-03
   19 C19         1.965468E-02   1.121490E-01   1.929758E-02
   20 C20         3.135012E-03   1.362609E-03  -1.040471E-02
   21 C21         2.773507E-02   7.057508E-03  -9.149475E-02
   22 C22        -5.949818E-02   7.174146E-04   3.627158E-02
   23 C23         3.118340E-02  -1.220809E-02  -2.706650E-02
   24 O24        -2.176702E-02   2.263523E-03   7.586297E-03
   25 O25        -1.451021E-03  -2.744151E-03  -3.335677E-04
   26 H26         2.052860E-03  -6.046464E-04   4.260209E-03
   27 H27        -4.173075E-03  -1.103231E-03  -7.410597E-04
   28 H28        -2.851511E-03  -1.186587E-03  -2.051034E-03
   29 H29        -5.481841E-03   8.641421E-03  -1.316303E-02
   30 H30        -2.257943E-02   4.270323E-03  -1.581809E-02
   31 H31        -3.361368E-03  -8.739734E-03   1.085585E-02
   32 H32        -5.644214E-03   2.003967E-03   5.862800E-03
   33 H33         1.736090E-04  -2.933884E-04  -1.642476E-03
   34 H34        -9.441957E-04  -3.840107E-03   3.276384E-03
   35 H35         5.383172E-04   1.088020E-03   6.086089E-06
   36 H36         1.698729E-03   2.628174E-03  -3.100163E-03
   37 H37         8.402817E-04   3.829051E-03  -5.300280E-03
   38 H38         1.265562E-03   6.466386E-03  -4.569494E-04
   39 H39         2.037401E-03   4.196044E-03  -1.990798E-03
   40 H40         1.202926E-02  -2.568150E-02  -1.269806E-02
   41 H41         5.838285E-03  -3.222739E-02   2.531197E-02
   42 H42         1.093898E-03  -4.947971E-03  -3.317069E-03
   43 H43         1.140693E-02   2.897251E-03   9.241531E-03
   44 H44        -5.484506E-03   4.527168E-03   8.087966E-03
   45 H45        -7.695264E-03  -1.467227E-02  -1.422417E-02
   46 H46        -3.061537E-03  -4.497306E-03   6.953372E-03
 -------------   -------------  -------------  -------------
     total        5.389947E-04   3.303347E-04  -5.566129E-04
   
  Peak memory usage:   6742 Mb
  
  end of program der1b
   
 Time(der1b)  user:       67.2  user+sys:       67.2  wallclock:        4.7
  
  start of program geopt
  
 ----------------------------------------------------------------------------
  Geometry optimization step  2
  Total energy:      -925.95152732902 hartrees
 ----------------------------------------------------------------------------
  
  
  Level shifts adjusted to satisfy step-size constraints
   Step size:    0.3002366
   Cos(theta):   0.9423551
   Final level shift:  -7.9722863E-01
  
  energy change:          -9.7564E-02 .  (  5.0000E-05 )
  gradient maximum:        1.1450E-01 .  (  4.5000E-04 )
  gradient rms:            2.6057E-02 .  (  3.0000E-04 )
  displacement maximum:    1.1424E-01 .  (  1.8000E-03 )
  displacement rms:        2.2980E-02 .  (  1.2000E-03 )
  
  predicted energy change:  -7.6924E-02
  step size:     0.28238
  trust radius:  0.30000
  
  molecular structure not yet converged...
  
  center of mass moved by:
     x:    -1.8723E-02     y:    -1.8467E-02     z:    -2.7653E-04
  
  new geometry: 
                                   angstroms
  atom               x                 y                 z
  C1            0.6296460866      0.1264523733     -0.0831143963 
  C2            2.1239371590      0.3378643375     -0.0060430929 
  C3            2.4890197006      0.9138098247      1.6696519899 
  C4            2.1246821586     -0.0034173584      2.8013104467 
  C5            2.9124382784     -1.3110521209      2.7064644357 
  H6            3.9818248185     -1.1592141844      2.9158027973 
  C7            2.4451049634     -2.3296426445      3.7295469874 
  C8            2.0630166546     -1.9007083280      5.0200264545 
  C9            1.6082609947     -2.7927403386      5.9780881525 
  C10           1.5758394358     -4.1535917950      5.6655223632 
  C11           1.9765667643     -4.6074944725      4.4043793539 
  C12           2.4158536500     -3.7014539200      3.4252230241 
  C13           2.8326536330     -4.2146474953      2.0638760704 
  C14           3.5077209318     -3.1458370207      1.1074659733 
  C15           2.8251645543     -1.7179940727      1.2512580601 
  H16           1.7821459252     -1.8621884420      0.9379535054 
  C17           3.4053128581     -0.3793431844      0.1769460021 
  H18           3.7130829537     -0.9517717796     -0.7009781967 
  C19           3.9662529499      1.5508275285     -0.3807545588 
  C20           2.9907711099      2.0493060614     -1.5560705002 
  C21           2.6903335006      0.6131376632     -1.7528825554 
  C22           4.0087286960      0.0292442829     -2.3235304402 
  C23           5.0158742431     -0.3881689221     -2.8511802003 
  O24           1.7656794981      0.0494186660     -2.6601215545 
  O25           1.1582830927     -5.0955951414      6.5742428304 
  H26           0.2205786804     -0.4124087215      0.7697352025 
  H27           0.2859080462     -0.3805793694     -0.9811326577 
  H28           0.1562234013      1.1167683472     -0.0815232292 
  H29           1.9988123689      1.8697467832      1.8761205593 
  H30           3.5888287125      1.0563169333      1.7926999867 
  H31           1.0430200288     -0.1459487408      2.8312060527 
  H32           2.4279616124      0.5510945748      3.6941549187 
  H33           2.1046381263     -0.8518001271      5.2880112764 
  H34           1.2993374705     -2.4106523089      6.9446274939 
  H35           1.9390404671     -5.6745885190      4.2076816065 
  H36           1.9538650377     -4.6645229943      1.5776024485 
  H37           3.5396812757     -5.0460878595      2.2071287298 
  H38           3.4614116853     -3.5624508821      0.0930135829 
  H39           4.5658313297     -3.0953427603      1.3864451728 
  H40           5.0200844233      1.8389806442     -0.4521410100 
  H41           3.6573697219      2.3377417850      0.3457647022 
  H42           3.5553827812      2.5669757050     -2.3328373008 
  H43           2.0921283030      2.6067029111     -1.2495873152 
  H44           5.8155591175     -0.8169483491     -3.4265730309 
  H45           1.2626987722     -0.6389515444     -2.1889210800 
  H46           0.9132184152     -4.6631111834      7.4144272578 
   
  nuclear repulsion energy.......    1798.195816581 hartrees
  -------------------------------------------------
 /  end of geometry optimization iteration   2   /
 -------------------------------------------------
   
  Peak memory usage:   4728 Mb
  
  end of program geopt
   
 Time(geopt)  user:        8.6  user+sys:        8.6  wallclock:        0.7
  
  start of program onee
  
  smallest eigenvalue of S:    5.134E-04
  number of canonical orbitals.....          246
  Peak memory usage:   4838 Mb
  
  end of program onee
   
 Time(onee)  user:        3.1  user+sys:        3.1  wallclock:        0.5
  
  start of program probe
  
  Peak memory usage:   4756 Mb
  
  end of program probe
   
 Time(probe)  user:        1.9  user+sys:        1.9  wallclock:        0.4
  
  start of program grid
  
   grid     grid set  grid #  grid sym
  ------    --------  ------  --------
  coarse        0        0        1
  medium        2        1        1
  fine          0        0        1
  ultrafine     4        2        1
  charge       -1        3        1
  gradient      4        2        1
  density       0        0        1
  DFT-fine    -11        4        1
  DFT-med.    -10        5        1
  DFT-grad    -12        6        1
  DFT-der2      0        0        1
  DFT-cphf      0        0        1
  LMP2-enrg     4        2        1
  LMP2-grad     2        1        1
  DFT-cphf2     0        0        1
  PBF-dens      0        0        1
  plotting      0        0        1
  Rel-grad    -17        0        1
  
  number of gridpoints: 
     atom        C1       C2       C3       C4       C5       H6       C7
  grid # 1       77       99       85       84       91      108      100
  grid # 2      265      359      299      283      314      431      365
  grid # 3        6        6        6        6        6      670      102
  grid # 4     4304     4304     4304     4304     4304     4304     4304
  grid # 5     1192     1192     1192     1192     1192     1192     1192
  grid # 6     5226     5226     5226     5226     5226     5226     5226
   
  number of gridpoints: 
     atom        C8       C9      C10      C11      C12      C13      C14
  grid # 1       96       97       96       97      101       86       86
  grid # 2      337      334      353      336      364      291      294
  grid # 3      175      228      241      214      143        6        6
  grid # 4     4304     4304     4304     4304     4304     4304     4304
  grid # 5     1192     1192     1192     1192     1192     1192     1192
  grid # 6     5226     5226     5226     5226     5226     5226     5226
   
  number of gridpoints: 
     atom       C15      H16      C17      H18      C19      C20      C21
  grid # 1       92      104       97      104       88       82       97
  grid # 2      330      414      345      406      312      293      347
  grid # 3        6      300       51      313        6        6        6
  grid # 4     4304     4304     4304     4304     4304     4304     4304
  grid # 5     1192     1192     1192     1192     1192     1192     1192
  grid # 6     5226     5226     5226     5226     5226     5226     5226
   
  number of gridpoints: 
     atom       C22      C23      O24      O25      H26      H27      H28
  grid # 1       99       99      112      114      102      101      109
  grid # 2      381      386      429      428      415      403      433
  grid # 3      106      394      729      818      551      591      831
  grid # 4     4304     4304     4304     4304     4304     4304     4304
  grid # 5     1192     1192     1192     1192     1192     1192     1192
  grid # 6     5226     5226     5226     5226     5226     5226     5226
   
  number of gridpoints: 
     atom       H29      H30      H31      H32      H33      H34      H35
  grid # 1      108      102      107      106      111      117      115
  grid # 2      430      408      421      418      431      441      444
  grid # 3      718      411      572      589      779     1147     1060
  grid # 4     4304     4304     4304     4304     4304     4304     4304
  grid # 5     1192     1192     1192     1192     1192     1192     1192
  grid # 6     5226     5226     5226     5226     5226     5226     5226
   
  number of gridpoints: 
     atom       H36      H37      H38      H39      H40      H41      H42
  grid # 1      110      109      111      110      113      104      112
  grid # 2      434      434      433      433      441      411      444
  grid # 3      894      889      814      803     1005      481     1061
  grid # 4     4304     4304     4304     4304     4304     4304     4304
  grid # 5     1192     1192     1192     1192     1192     1192     1192
  grid # 6     5226     5226     5226     5226     5226     5226     5226
   
  number of gridpoints: 
     atom       H43      H44      H45      H46    total
  grid # 1      108      120      107      114     4687
  grid # 2      433      465      413      450    17731
  grid # 3      784     1792      684     1281    22287
  grid # 4     4304     4304     4304     4304   197984
  grid # 5     1192     1192     1192     1192    54832
  grid # 6     5226     5226     5226     5226   240396
   
  Peak memory usage:   4790 Mb
  
  end of program grid
   
 Time(grid)  user:       28.6  user+sys:       28.6  wallclock:        2.3
  
  start of program rwr
  
  Peak memory usage:   4745 Mb
  
  end of program rwr
   
 Time(rwr)  user:       54.0  user+sys:       54.0  wallclock:        5.4
  
  start of program scf
  
 Energy computed with NOPS off.
  
       i  u  d  i  g                   
       t  p  i  c  r                                 RMS    maximum
       e  d  i  u  i                       energy  density   DIIS  
       r  t  s  t  d       total energy    change  change    error 
  
etot    1  N  N  2  U    -925.96261861309           2.2E-03  1.5E-02
etot    2  Y  Y  6  M    -926.02267984550  6.0E-02  1.3E-03  7.3E-03
etot    3  N  Y  2  U    -926.01101283446 -1.2E-02  1.3E-03  1.9E-02
etot    4  N  Y  2  U    -926.02479545766  1.4E-02  4.5E-04  1.3E-02
etot    5  Y  Y  6  M    -926.02706725799  2.3E-03  1.8E-04  3.0E-03
etot    6  Y  Y  6  M    -926.02723225383  1.6E-04  6.1E-05  1.8E-03
etot    7  N  Y  2  U    -926.02735667874  1.2E-04  3.6E-05  3.7E-04
etot    8  N  Y  2  U    -926.02737310091  1.6E-05  3.0E-05  2.2E-04
etot    9  N  Y  2  U    -926.02738043926  7.3E-06  2.3E-05  4.3E-04
etot   10  N  Y  2  U    -926.02738710316  6.7E-06  1.2E-05  1.8E-04
etot   11  N  Y  2  U    -926.02738932434  2.2E-06  9.1E-06  9.7E-05
etot   12  N  Y  2  U    -926.02739025656  9.3E-07  6.9E-06  8.0E-05
etot   13  N  Y  2  U    -926.02739089730  6.4E-07  6.0E-06  4.6E-05
etot   14  N  Y  2  U    -926.02739121375  3.2E-07  4.3E-06  3.0E-05
etot   15  N  N  2  U    -926.02739128859  7.5E-08  0.0E+00  0.0E+00
  
  
 Energy components, in hartrees:
   (A)  Nuclear repulsion............    1798.19581658072
   (E)  Total one-electron terms.....   -4806.80811600982
   (I)  Total two-electron terms.....    2082.58490814051
   (L)  Electronic energy............   -2724.22320786930  (E+I)
   (N)  Total energy.................    -926.02739128859  (A+L)
   (O)  Gas phase energy.............    -926.02739128859
  
                                 Total             Coulomb       Exchange+Corr.
 Total two-electron terms    2082.58490814051    2216.79338357420    -134.20847543368
   Hamiltonian  1........    1067.42092733719    1115.21247649848     -47.79154916129
   Hamiltonian  2........    1054.20251718849    1101.58090707572     -47.37838988723
  
 SCFE: SCF energy: UDFT(b3lyp)      -926.02739128859 hartrees   iterations:  15
  
 
 Alpha HOMO energy:    -0.34133
 Alpha LUMO energy:    -0.19894
 
  Alpha Orbital energies (hartrees): 
   -19.29469   -19.29361   -10.44186   -10.40101   -10.37679   -10.37499
   -10.35423   -10.34569   -10.34304   -10.33578   -10.33171   -10.31986
   -10.31914   -10.31838   -10.31492   -10.31404   -10.31005   -10.30893
   -10.30746   -10.30585   -10.30493   -10.30100    -1.19063    -1.18755
    -1.01663    -0.99445    -0.96215    -0.92704    -0.91323    -0.88015
    -0.87553    -0.86975    -0.85092    -0.83974    -0.80489    -0.76162
    -0.75177    -0.74140    -0.73373    -0.71477    -0.69778    -0.68447
    -0.66664    -0.65217    -0.64232    -0.62567    -0.61996    -0.60943
    -0.60263    -0.59442    -0.57845    -0.57331    -0.57249    -0.56305
    -0.54950    -0.54732    -0.53879    -0.53319    -0.53062    -0.52458
    -0.51301    -0.51057    -0.50516    -0.49674    -0.49001    -0.48343
    -0.46507    -0.46325    -0.45816    -0.45270    -0.44757    -0.43737
    -0.43300    -0.42599    -0.40545    -0.38299    -0.37491    -0.36493
    -0.36423    -0.34133    -0.19894    -0.17644    -0.12343    -0.10974
    -0.08096    -0.07011    -0.05677    -0.04162    -0.03800    -0.03474
 
 
 Beta HOMO energy:    -0.32575
 Beta LUMO energy:    -0.30404
 
  Beta Orbital energies (hartrees): 
   -19.29284   -19.29257   -10.44004   -10.39582   -10.37645   -10.37409
   -10.35223   -10.34497   -10.34252   -10.33513   -10.33146   -10.31909
   -10.31864   -10.31814   -10.31469   -10.31422   -10.31005   -10.30862
   -10.30706   -10.30537   -10.30479   -10.30053    -1.18793    -1.18367
    -1.01047    -0.99128    -0.95992    -0.92314    -0.91124    -0.87863
    -0.87340    -0.86753    -0.84763    -0.83825    -0.80171    -0.75964
    -0.75019    -0.73891    -0.73065    -0.71354    -0.69415    -0.68148
    -0.66286    -0.65025    -0.63967    -0.62357    -0.61855    -0.60543
    -0.60089    -0.59137    -0.57635    -0.57153    -0.57053    -0.56049
    -0.54806    -0.54560    -0.53712    -0.53133    -0.52627    -0.51955
    -0.51076    -0.50666    -0.50203    -0.49543    -0.48709    -0.48152
    -0.46376    -0.45932    -0.45444    -0.44951    -0.44472    -0.43130
    -0.43029    -0.42337    -0.40149    -0.38218    -0.37020    -0.36282
    -0.32575    -0.30404    -0.19465    -0.15620    -0.11993    -0.10215
    -0.07939    -0.06753    -0.05538    -0.04006    -0.03734
 
  
  
    Unrestricted Spin Properties ...
    Sz*(Sz+1)      0.750
    <S**2> ...     0.759
  
  
  Peak memory usage:   6749 Mb
  
  end of program scf
   
 Time(scf)  user:      384.7  user+sys:      384.7  wallclock:       27.4
  
  start of program der1a
  
  Peak memory usage:   4838 Mb
  
  end of program der1a
   
 Time(der1a)  user:        2.1  user+sys:        2.1  wallclock:        0.5
  
  start of program rwr
  
  Peak memory usage:   4745 Mb
  
  end of program rwr
   
 Time(rwr)  user:       45.6  user+sys:       45.6  wallclock:        5.9
  
  start of program der1b
  
   
  forces (hartrees/bohr) : total     
   
 atom  label           x              y              z
 ---- --------   -------------  -------------  -------------
    1 C1         -2.462640E-03   4.044382E-03   2.849614E-03
    2 C2          1.051364E-02  -1.409030E-02   2.979244E-02
    3 C3         -6.727711E-03   3.542362E-02   1.074628E-02
    4 C4         -5.966747E-03   3.573203E-03  -3.847468E-04
    5 C5         -1.415462E-03  -1.680775E-04   5.130311E-03
    6 H6          1.934274E-04   9.202905E-03  -5.218431E-04
    7 C7         -2.336366E-03   4.366676E-03  -1.563375E-03
    8 C8         -3.863827E-03   1.429105E-03   5.654420E-04
    9 C9          4.435387E-03   1.146456E-02  -5.816308E-04
   10 C10        -9.666326E-04  -8.193438E-03   1.266101E-04
   11 C11         3.609137E-03  -4.199359E-04  -6.866359E-03
   12 C12        -4.449271E-03  -8.220566E-03   3.298760E-03
   13 C13         4.654494E-05   4.960109E-03  -6.083080E-03
   14 C14        -8.294683E-04   5.625144E-03   1.218249E-03
   15 C15         3.958092E-02  -2.372130E-02   7.579215E-03
   16 H16         2.468628E-03   7.473962E-03  -2.314160E-03
   17 C17        -2.327824E-02  -6.358467E-02  -1.704513E-02
   18 H18         1.250700E-02   4.447291E-04   1.196760E-02
   19 C19         1.975049E-02   7.764916E-02   3.151439E-02
   20 C20         7.007099E-03  -1.483056E-02   2.974260E-03
   21 C21         2.427668E-02  -2.080928E-03  -7.466839E-02
   22 C22        -3.029824E-02   6.235724E-03   2.436877E-02
   23 C23         6.814424E-03  -7.770676E-03  -1.403506E-02
   24 O24        -2.301265E-02   1.590090E-02   7.947664E-03
   25 O25         1.561613E-04   2.561351E-03  -1.997570E-03
   26 H26         1.512869E-03  -8.043826E-04   4.063554E-03
   27 H27        -3.774803E-03  -1.722414E-03   6.259541E-04
   28 H28        -1.883478E-03  -6.812473E-04  -1.189621E-03
   29 H29        -3.958679E-03   5.669170E-03  -1.037283E-02
   30 H30        -2.042433E-02   1.337692E-03  -1.013623E-02
   31 H31        -2.080945E-03  -7.305257E-03   6.651117E-03
   32 H32        -4.387381E-03   1.684086E-03   4.174135E-03
   33 H33        -4.222481E-04   3.856262E-04  -1.609274E-03
   34 H34        -1.344039E-04  -3.002417E-03   2.136064E-03
   35 H35         4.628166E-04   1.035724E-03   9.069803E-06
   36 H36         7.413708E-04   2.752131E-03  -2.127467E-03
   37 H37        -7.578731E-05   2.408626E-03  -2.784008E-03
   38 H38        -1.634222E-04   5.997790E-03  -6.196827E-04
   39 H39         1.111911E-03   4.788593E-03  -1.364819E-03
   40 H40         6.023577E-03  -2.380959E-02  -1.558864E-02
   41 H41         3.076270E-03  -2.744309E-02   1.484036E-02
   42 H42        -3.630700E-03  -2.203258E-03  -4.708727E-03
   43 H43         1.110215E-02   3.147187E-03   4.668625E-03
   44 H44        -2.220618E-03   4.404520E-03   5.382606E-03
   45 H45        -4.116100E-03  -8.961217E-03  -1.191165E-02
   46 H46        -2.149337E-03  -4.381176E-03   4.822568E-03
 -------------   -------------  -------------  -------------
     total        3.610281E-04   5.721781E-04  -1.020645E-03
   
  Peak memory usage:   6742 Mb
  
  end of program der1b
   
 Time(der1b)  user:       67.7  user+sys:       67.7  wallclock:        4.7
  
  start of program geopt
  
 ----------------------------------------------------------------------------
  Geometry optimization step  3
  Total energy:      -926.02739128859 hartrees
 ----------------------------------------------------------------------------
  detected            2  molecular fragments
  detected            2  molecular fragments
  
  
  Level shifts adjusted to satisfy step-size constraints
   Step size:    0.3002141
   Cos(theta):   0.9714871
   Final level shift:  -6.2215125E-01
  
  energy change:          -7.5864E-02 .  (  5.0000E-05 )
  gradient maximum:        1.2320E-01 .  (  4.5000E-04 )
  gradient rms:            1.9609E-02 .  (  3.0000E-04 )
  displacement maximum:    1.4539E-01 .  (  1.8000E-03 )
  displacement rms:        2.4026E-02 .  (  1.2000E-03 )
  
  predicted energy change:  -6.2245E-02
  step size:     0.29523
  trust radius:  0.30000
  
  molecular structure not yet converged...
  
  center of mass moved by:
     x:    -1.6555E-02     y:    -4.3377E-03     z:    -7.0051E-03
  
  new geometry: 
                                   angstroms
  atom               x                 y                 z
  C1            0.5254447647      0.1908196260     -0.0967096991 
  C2            2.0208985849      0.4050859982     -0.0103515309 
  C3            2.3494396089      0.9912705271      1.6733994802 
  C4            1.9674424816      0.0706466960      2.8166134150 
  C5            2.8229242399     -1.2066758882      2.7554479690 
  H6            3.8721501055     -0.9771940343      2.9981945638 
  C7            2.4122083542     -2.2767177002      3.7534067085 
  C8            1.9633814229     -1.9138774731      5.0442096725 
  C9            1.5715097323     -2.8726958628      5.9676191266 
  C10           1.6717304900     -4.2287998886      5.6203073362 
  C11           2.1412176417     -4.6118798968      4.3574133763 
  C12           2.5148816316     -3.6451342407      3.4155147788 
  C13           3.0101265755     -4.0962266238      2.0553691906 
  C14           3.6095242148     -2.9650793786      1.1380191625 
  C15           2.7993670428     -1.6324922610      1.3037920607 
  H16           1.7752312405     -1.8146272321      0.9559515453 
  C17           3.3143087026     -0.3306013366      0.2018047097 
  H18           3.6598627897     -0.9307468102     -0.6357792404 
  C19           4.1970004847      1.3628654441     -0.3629481880 
  C20           3.2325120479      2.0027895147     -1.5046578713 
  C21           2.6771548524      0.6356205688     -1.7580451924 
  C22           3.8607042319     -0.1624391315     -2.3131592404 
  C23           4.7717404161     -0.7613245226     -2.8527153999 
  O24           1.7016080636      0.1999545796     -2.6998350174 
  O25           1.3226254336     -5.2390054971      6.4864981856 
  H26           0.1184125396     -0.3438047878      0.7624510884 
  H27           0.1814310232     -0.3208626029     -0.9927739315 
  H28           0.0457720026      1.1782317129     -0.1082189117 
  H29           1.8372846226      1.9473071857      1.8378435497 
  H30           3.4341007256      1.1413065789      1.8052243870 
  H31           0.8897100774     -0.1130815730      2.8375482328 
  H32           2.2169329481      0.6439848287      3.7166358641 
  H33           1.9099481139     -0.8711609529      5.3334999437 
  H34           1.2073688818     -2.5578868378      6.9398024563 
  H35           2.2071796762     -5.6716541329      4.1343662982 
  H36           2.1874566028     -4.6077200423      1.5342032345 
  H37           3.7820963317     -4.8659247757      2.1974538327 
  H38           3.6284172905     -3.3531976438      0.1126633892 
  H39           4.6525797265     -2.8147697751      1.4391866656 
  H40           5.2756325806      1.4933756388     -0.4987180287 
  H41           4.0365463506      2.1253281285      0.4237155520 
  H42           3.8810413820      2.4099688247     -2.2821742748 
  H43           2.4660661103      2.6997217429     -1.1445434650 
  H44           5.4735325824     -1.3445387913     -3.4124497635 
  H45           1.1021830085     -0.4513458523     -2.2857348216 
  H46           1.0140741225     -4.8750890888      7.3401651305 
   
  nuclear repulsion energy.......    1795.909086197 hartrees
  -------------------------------------------------
 /  end of geometry optimization iteration   3   /
 -------------------------------------------------
   
  Peak memory usage:   4728 Mb
  
  end of program geopt
   
 Time(geopt)  user:        8.1  user+sys:        8.1  wallclock:        0.7
  
  start of program onee
  
  smallest eigenvalue of S:    5.258E-04
  number of canonical orbitals.....          246
  Peak memory usage:   4838 Mb
  
  end of program onee
   
 Time(onee)  user:        1.5  user+sys:        1.5  wallclock:        0.5
  
  start of program probe
  
  Peak memory usage:   4756 Mb
  
  end of program probe
   
 Time(probe)  user:        1.5  user+sys:        1.5  wallclock:        0.4
  
  start of program grid
  
   grid     grid set  grid #  grid sym
  ------    --------  ------  --------
  coarse        0        0        1
  medium        2        1        1
  fine          0        0        1
  ultrafine     4        2        1
  charge       -1        3        1
  gradient      4        2        1
  density       0        0        1
  DFT-fine    -11        4        1
  DFT-med.    -10        5        1
  DFT-grad    -12        6        1
  DFT-der2      0        0        1
  DFT-cphf      0        0        1
  LMP2-enrg     4        2        1
  LMP2-grad     2        1        1
  DFT-cphf2     0        0        1
  PBF-dens      0        0        1
  plotting      0        0        1
  Rel-grad    -17        0        1
  
  number of gridpoints: 
     atom        C1       C2       C3       C4       C5       H6       C7
  grid # 1       77      100       85       86       91      109      100
  grid # 2      266      361      299      285      318      428      366
  grid # 3        6        6        6        6        6      652      108
  grid # 4     4304     4304     4304     4304     4304     4304     4304
  grid # 5     1192     1192     1192     1192     1192     1192     1192
  grid # 6     5226     5226     5226     5226     5226     5226     5226
   
  number of gridpoints: 
     atom        C8       C9      C10      C11      C12      C13      C14
  grid # 1       96       97       98       97      100       86       86
  grid # 2      339      336      357      334      364      292      296
  grid # 3      181      231      236      213      142        6        6
  grid # 4     4304     4304     4304     4304     4304     4304     4304
  grid # 5     1192     1192     1192     1192     1192     1192     1192
  grid # 6     5226     5226     5226     5226     5226     5226     5226
   
  number of gridpoints: 
     atom       C15      H16      C17      H18      C19      C20      C21
  grid # 1       90      103       95       99       90       81       98
  grid # 2      327      415      337      403      312      295      346
  grid # 3        6      330       32      244        7        6        7
  grid # 4     4304     4304     4304     4304     4304     4304     4304
  grid # 5     1192     1192     1192     1192     1192     1192     1192
  grid # 6     5226     5226     5226     5226     5226     5226     5226
   
  number of gridpoints: 
     atom       C22      C23      O24      O25      H26      H27      H28
  grid # 1       98      100      112      114      103      101      107
  grid # 2      378      381      432      428      416      405      436
  grid # 3       96      380      737      806      558      590      896
  grid # 4     4304     4304     4304     4304     4304     4304     4304
  grid # 5     1192     1192     1192     1192     1192     1192     1192
  grid # 6     5226     5226     5226     5226     5226     5226     5226
   
  number of gridpoints: 
     atom       H29      H30      H31      H32      H33      H34      H35
  grid # 1      109      100      107      107      111      117      115
  grid # 2      433      400      421      418      431      443      443
  grid # 3      769      347      585      620      799     1150     1054
  grid # 4     4304     4304     4304     4304     4304     4304     4304
  grid # 5     1192     1192     1192     1192     1192     1192     1192
  grid # 6     5226     5226     5226     5226     5226     5226     5226
   
  number of gridpoints: 
     atom       H36      H37      H38      H39      H40      H41      H42
  grid # 1      110      109      111      110      113      103      114
  grid # 2      433      432      433      432      441      409      443
  grid # 3      889      884      750      790     1026      523     1047
  grid # 4     4304     4304     4304     4304     4304     4304     4304
  grid # 5     1192     1192     1192     1192     1192     1192     1192
  grid # 6     5226     5226     5226     5226     5226     5226     5226
   
  number of gridpoints: 
     atom       H43      H44      H45      H46    total
  grid # 1      111      119      107      114     4686
  grid # 2      437      465      415      450    17731
  grid # 3      841     1752      734     1294    22354
  grid # 4     4304     4304     4304     4304   197984
  grid # 5     1192     1192     1192     1192    54832
  grid # 6     5226     5226     5226     5226   240396
   
  Peak memory usage:   4790 Mb
  
  end of program grid
   
 Time(grid)  user:       31.5  user+sys:       31.5  wallclock:        2.8
  
  start of program rwr
  
  Peak memory usage:   4745 Mb
  
  end of program rwr
   
 Time(rwr)  user:       51.0  user+sys:       51.0  wallclock:        5.2
  
  start of program scf
  
 Energy computed with NOPS off.
  
       i  u  d  i  g                   
       t  p  i  c  r                                 RMS    maximum
       e  d  i  u  i                       energy  density   DIIS  
       r  t  s  t  d       total energy    change  change    error 
  
etot    1  N  N  2  U    -926.00579775359           1.7E-03  1.7E-02
etot    2  Y  Y  6  M    -926.08637772556  8.1E-02  1.0E-03  5.5E-03
etot    3  N  Y  2  U    -926.07611394569 -1.0E-02  1.3E-03  1.8E-02
etot    4  N  Y  2  U    -926.08050161158  4.4E-03  7.0E-04  2.5E-02
etot    5  Y  Y  6  M    -926.08825180323  7.8E-03  1.2E-04  2.5E-03
etot    6  N  Y  2  U    -926.08852129247  2.7E-04  4.6E-05  6.8E-04
etot    7  N  Y  2  U    -926.08855536662  3.4E-05  3.1E-05  2.8E-04
etot    8  N  Y  2  U    -926.08856582639  1.0E-05  2.9E-05  2.6E-04
etot    9  N  Y  2  U    -926.08857380324  8.0E-06  2.0E-05  2.4E-04
etot   10  N  Y  2  U    -926.08857754641  3.7E-06  1.1E-05  1.4E-04
etot   11  N  Y  2  U    -926.08857863222  1.1E-06  5.2E-06  3.3E-05
etot   12  N  Y  2  U    -926.08857884792  2.2E-07  3.1E-06  2.8E-05
etot   13  N  N  2  U    -926.08857894752  1.0E-07  0.0E+00  0.0E+00
  
  
 Energy components, in hartrees:
   (A)  Nuclear repulsion............    1795.90908619701
   (E)  Total one-electron terms.....   -4802.50638992763
   (I)  Total two-electron terms.....    2080.50872478311
   (L)  Electronic energy............   -2721.99766514452  (E+I)
   (N)  Total energy.................    -926.08857894752  (A+L)
   (O)  Gas phase energy.............    -926.08857894752
  
                                 Total             Coulomb       Exchange+Corr.
 Total two-electron terms    2080.50872478311    2214.68375170118    -134.17502691807
   Hamiltonian  1........    1066.38809178026    1114.16731533943     -47.77922355916
   Hamiltonian  2........    1053.14990062987    1100.51643636175     -47.36653573188
  
 SCFE: SCF energy: UDFT(b3lyp)      -926.08857894752 hartrees   iterations:  13
  
 
 Alpha HOMO energy:    -0.34464
 Alpha LUMO energy:    -0.17896
 
  Alpha Orbital energies (hartrees): 
   -19.29943   -19.29135   -10.44275   -10.39666   -10.38018   -10.36545
   -10.34330   -10.34142   -10.33956   -10.33327   -10.33254   -10.32527
   -10.32190   -10.32129   -10.31810   -10.31423   -10.31353   -10.31216
   -10.30675   -10.30506   -10.30465   -10.30411    -1.19014    -1.18286
    -1.00730    -0.99158    -0.95802    -0.92487    -0.91171    -0.87981
    -0.87299    -0.86862    -0.84526    -0.83916    -0.80147    -0.76157
    -0.75231    -0.74303    -0.73317    -0.71547    -0.69761    -0.68242
    -0.65975    -0.65190    -0.64063    -0.62130    -0.61958    -0.60555
    -0.60256    -0.59244    -0.57663    -0.57375    -0.56930    -0.56044
    -0.55118    -0.54731    -0.53941    -0.53256    -0.53023    -0.52390
    -0.51167    -0.51048    -0.49945    -0.49794    -0.49117    -0.48226
    -0.46701    -0.46367    -0.45701    -0.45284    -0.44400    -0.43959
    -0.43752    -0.42832    -0.40755    -0.37984    -0.37112    -0.36827
    -0.36672    -0.34464    -0.17896    -0.15754    -0.12573    -0.11459
    -0.07967    -0.06663    -0.05458    -0.04188    -0.03852    -0.03101
 
 
 Beta HOMO energy:    -0.32751
 Beta LUMO energy:    -0.30517
 
  Beta Orbital energies (hartrees): 
   -19.29742   -19.29030   -10.44121   -10.39089   -10.37917   -10.36443
   -10.34254   -10.34068   -10.33965   -10.33301   -10.33212   -10.32348
   -10.32201   -10.32122   -10.31782   -10.31424   -10.31366   -10.31170
   -10.30644   -10.30470   -10.30448   -10.30364    -1.18589    -1.18022
    -1.00306    -0.98696    -0.95591    -0.92173    -0.90878    -0.87835
    -0.87019    -0.86688    -0.84201    -0.83744    -0.79921    -0.75982
    -0.75076    -0.74028    -0.73063    -0.71433    -0.69446    -0.67918
    -0.65542    -0.65042    -0.63728    -0.61963    -0.61783    -0.60259
    -0.60078    -0.58919    -0.57467    -0.57205    -0.56765    -0.55757
    -0.54992    -0.54526    -0.53737    -0.53105    -0.52459    -0.51912
    -0.50882    -0.50635    -0.49774    -0.49659    -0.48839    -0.48012
    -0.46541    -0.46077    -0.45261    -0.44973    -0.44073    -0.43573
    -0.43219    -0.42636    -0.40414    -0.37878    -0.36759    -0.36577
    -0.32751    -0.30517    -0.16371    -0.14933    -0.12198    -0.10577
    -0.07844    -0.06424    -0.05389    -0.04113    -0.03695
 
  
  
    Unrestricted Spin Properties ...
    Sz*(Sz+1)      0.750
    <S**2> ...     0.758
  
  
  Peak memory usage:   6749 Mb
  
  end of program scf
   
 Time(scf)  user:      338.5  user+sys:      338.5  wallclock:       23.7
  
  start of program der1a
  
  Peak memory usage:   4838 Mb
  
  end of program der1a
   
 Time(der1a)  user:        2.3  user+sys:        2.3  wallclock:        0.5
  
  start of program rwr
  
  Peak memory usage:   4745 Mb
  
  end of program rwr
   
 Time(rwr)  user:       42.8  user+sys:       42.8  wallclock:        6.0
  
  start of program der1b
  
   
  forces (hartrees/bohr) : total     
   
 atom  label           x              y              z
 ---- --------   -------------  -------------  -------------
    1 C1          2.908380E-03   1.355300E-03  -2.363370E-05
    2 C2          1.436845E-02  -1.183328E-02   3.569478E-02
    3 C3         -1.527635E-02   4.164235E-02  -3.733186E-03
    4 C4         -3.128649E-03   1.120243E-03   2.345215E-04
    5 C5         -9.932152E-04   2.388553E-03   5.471634E-03
    6 H6         -3.010303E-04   7.567501E-03  -1.504923E-03
    7 C7         -3.166079E-03   2.875661E-03  -3.229951E-03
    8 C8         -4.152860E-03  -1.163238E-03  -6.784720E-04
    9 C9          3.109618E-03   7.153722E-03   1.658341E-04
   10 C10        -1.058950E-03  -6.049839E-03   1.011972E-03
   11 C11         2.820117E-03   1.148774E-03  -3.978354E-03
   12 C12        -2.535918E-03  -5.793487E-03   1.495919E-03
   13 C13         1.082873E-03   2.946946E-03  -5.651132E-03
   14 C14        -3.352557E-03   3.033045E-03   4.671707E-03
   15 C15         4.015438E-02  -7.943260E-03  -5.808419E-03
   16 H16         8.755164E-04   2.270343E-03  -7.465604E-05
   17 C17         6.328961E-03  -4.842719E-02  -2.016867E-02
   18 H18         1.107515E-03  -6.531306E-03   1.246032E-02
   19 C19         1.037185E-04   4.669618E-02   4.649023E-02
   20 C20         9.008370E-03  -2.281678E-02   1.150815E-02
   21 C21         1.672672E-02  -1.124668E-02  -6.390718E-02
   22 C22        -1.288458E-02   4.448247E-03   1.464927E-02
   23 C23        -4.189475E-03  -2.321374E-03  -6.872828E-03
   24 O24        -2.343269E-02   2.827132E-02   8.568276E-03
   25 O25         1.768916E-04   5.006507E-03  -1.715344E-03
   26 H26         1.273807E-03  -8.673021E-04   2.418907E-03
   27 H27        -3.020417E-03  -3.724388E-03   2.089217E-04
   28 H28        -7.758781E-04  -1.007525E-04  -2.113635E-04
   29 H29        -2.117661E-03   2.555947E-03  -6.967652E-03
   30 H30        -1.405840E-02   2.540765E-03  -8.556397E-03
   31 H31        -6.290141E-04  -6.628156E-03   3.034738E-03
   32 H32        -3.085362E-03   1.352391E-03   2.341760E-03
   33 H33        -8.526009E-04   5.474134E-04  -1.288416E-03
   34 H34         4.357456E-04  -2.137420E-03   1.391966E-03
   35 H35         3.220741E-04   6.781211E-04   1.013559E-05
   36 H36        -1.780761E-04   2.554197E-03  -1.388530E-03
   37 H37        -4.651765E-04   1.155767E-03  -9.891795E-04
   38 H38        -1.535529E-03   5.180658E-03  -7.344175E-04
   39 H39         4.407704E-04   4.330667E-03  -6.695871E-04
   40 H40        -7.003891E-04  -2.372835E-02  -1.471046E-02
   41 H41         7.025730E-04  -1.741491E-02   8.046043E-03
   42 H42        -6.927701E-03   1.582177E-03  -5.675299E-03
   43 H43         9.813737E-03   2.625801E-03   1.085387E-03
   44 H44         4.558080E-04   3.752315E-03   3.005482E-03
   45 H45        -1.201928E-03  -3.339617E-03  -9.093585E-03
   46 H46        -1.133930E-03  -3.941676E-03   2.671063E-03
 -------------   -------------  -------------  -------------
     total        1.061610E-03   7.718946E-04  -9.946143E-04
   
  Peak memory usage:   6742 Mb
  
  end of program der1b
   
 Time(der1b)  user:       67.6  user+sys:       67.6  wallclock:        4.9
  
  start of program geopt
  
 ----------------------------------------------------------------------------
  Geometry optimization step  4
  Total energy:      -926.08857894752 hartrees
 ----------------------------------------------------------------------------
  detected            2  molecular fragments
  detected            2  molecular fragments
  
  
  Level shifts adjusted to satisfy step-size constraints
   Step size:    0.3002087
   Cos(theta):   0.8013954
   Final level shift:  -5.2205726E-01
  
  energy change:          -6.1188E-02 .  (  5.0000E-05 )
  gradient maximum:        1.1407E-01 .  (  4.5000E-04 )
  gradient rms:            2.0002E-02 .  (  3.0000E-04 )
  displacement maximum:    1.4092E-01 .  (  1.8000E-03 )
  displacement rms:        2.4428E-02 .  (  1.2000E-03 )
  
  predicted energy change:  -5.3081E-02
  step size:     0.30018
  trust radius:  0.30000
  
  molecular structure not yet converged...
  
  center of mass moved by:
     x:    -6.0971E-03     y:     7.1200E-03     z:    -1.4003E-02
  
  new geometry: 
                                   angstroms
  atom               x                 y                 z
  C1            0.4416407663      0.2416670435     -0.0973514546 
  C2            1.9370107303      0.4631793580     -0.0248609780 
  C3            2.2241281248      1.0602449397      1.6641486517 
  C4            1.8250784050      0.1258127157      2.8103781117 
  C5            2.7480444371     -1.1168411460      2.7822941562 
  H6            3.7698678313     -0.8099331218      3.0580025848 
  C7            2.3866554425     -2.2279546938      3.7595580471 
  C8            1.8755900974     -1.9236050263      5.0435381734 
  C9            1.5407976525     -2.9301795060      5.9408338334 
  C10           1.7611421135     -4.2728456400      5.5752002402 
  C11           2.2930346593     -4.5938045819      4.3186455301 
  C12           2.6084994444     -3.5849240177      3.4049562122 
  C13           3.1764031158     -3.9822688906      2.0542832992 
  C14           3.7070223330     -2.8055060973      1.1702935658 
  C15           2.7925962360     -1.5655736199      1.3359389387 
  H16           1.7905449095     -1.7949951921      0.9567803415 
  C17           3.2479246107     -0.3039151908      0.2120800789 
  H18           3.5987109096     -0.9515772676     -0.5804145872 
  C19           4.3085346005      1.1026576754     -0.2447112017 
  C20           3.4668507999      1.8936752031     -1.4093901077 
  C21           2.6914706668      0.6449987378     -1.7620395284 
  C22           3.7135877235     -0.3262913801     -2.3138880885 
  C23           4.4979495059     -1.0733300894     -2.8747609745 
  O24           1.6781405875      0.3992447792     -2.7479268465 
  O25           1.4751407586     -5.3313237859      6.4083870124 
  H26           0.0515952258     -0.2872966676      0.7749363433 
  H27           0.0821390751     -0.2808974344     -0.9823609233 
  H28          -0.0459819355      1.2253050744     -0.1156215671 
  H29           1.6851442597      2.0097476869      1.7895593112 
  H30           3.2925296757      1.2282597631      1.8109835651 
  H31           0.7546857354     -0.1058856132      2.8148667815 
  H32           2.0120612188      0.7136538394      3.7182035599 
[...]
  DFT-cphf      0        0        1
  LMP2-enrg     4        2        1
  LMP2-grad     2        1        1
  DFT-cphf2     0        0        1
  PBF-dens      0        0        1
  plotting      0        0        1
  Rel-grad    -17        0        1
  
  number of gridpoints: 
     atom        C1       C2       C3       C4       C5       H6       C7
  grid # 1       79       99       86       86       91      105       98
  grid # 2      267      349      292      291      313      412      363
  grid # 3        6        6        6        6        6      416      107
  grid # 4     4304     4304     4304     4304     4304     4304     4304
  grid # 5     1192     1192     1192     1192     1192     1192     1192
  grid # 6     5226     5226     5226     5226     5226     5226     5226
   
  number of gridpoints: 
     atom        C8       C9      C10      C11      C12      C13      C14
  grid # 1       97       97       99       95       98       86       86
  grid # 2      339      339      357      338      359      291      290
  grid # 3      186      228      250      213      130        6        6
  grid # 4     4304     4304     4304     4304     4304     4304     4304
  grid # 5     1192     1192     1192     1192     1192     1192     1192
  grid # 6     5226     5226     5226     5226     5226     5226     5226
   
  number of gridpoints: 
     atom       C15      H16      C17      H18      C19      C20      C21
  grid # 1       91      104       91      106       86       87       97
  grid # 2      319      412      323      418      292      296      338
  grid # 3        6      358        6      421        6        6        6
  grid # 4     4304     4304     4304     4304     4304     4304     4304
  grid # 5     1192     1192     1192     1192     1192     1192     1192
  grid # 6     5226     5226     5226     5226     5226     5226     5226
   
  number of gridpoints: 
     atom       C22      C23      O24      O25      H26      H27      H28
  grid # 1       99      100      111      112      106      109      109
  grid # 2      389      383      414      425      422      427      434
  grid # 3       85      434      305      759      612      714      846
  grid # 4     4304     4304     4304     4304     4304     4304     4304
  grid # 5     1192     1192     1192     1192     1192     1192     1192
  grid # 6     5226     5226     5226     5226     5226     5226     5226
   
  number of gridpoints: 
     atom       H29      H30      H31      H32      H33      H34      H35
  grid # 1      107      103      107      104      108      118      116
  grid # 2      424      413      425      421      432      444      441
  grid # 3      677      412      627      573      783     1163     1067
  grid # 4     4304     4304     4304     4304     4304     4304     4304
  grid # 5     1192     1192     1192     1192     1192     1192     1192
  grid # 6     5226     5226     5226     5226     5226     5226     5226
   
  number of gridpoints: 
     atom       H36      H37      H38      H39      H40      H41      H42
  grid # 1      109      110      109      107      110      104      111
  grid # 2      436      437      432      430      434      417      441
  grid # 3      883      868      789      647      813      495      934
  grid # 4     4304     4304     4304     4304     4304     4304     4304
  grid # 5     1192     1192     1192     1192     1192     1192     1192
  grid # 6     5226     5226     5226     5226     5226     5226     5226
   
  number of gridpoints: 
     atom       H43      H44      H45      H46    total
  grid # 1      107      120      112      114     4686
  grid # 2      428      466      448      450    17711
  grid # 3      704     1789     1246     1343    21949
  grid # 4     4304     4304     4304     4304   197984
  grid # 5     1192     1192     1192     1192    54832
  grid # 6     5226     5226     5226     5226   240396
   
  Peak memory usage:   4790 Mb
  
  end of program grid
   
 Time(grid)  user:       28.6  user+sys:       28.6  wallclock:        2.4
  
  start of program rwr
  
  Peak memory usage:   4745 Mb
  
  end of program rwr
   
 Time(rwr)  user:       57.9  user+sys:       57.9  wallclock:        5.6
  
  start of program scf
  
 Energy computed with NOPS off.
  
       i  u  d  i  g                   
       t  p  i  c  r                                 RMS    maximum
       e  d  i  u  i                       energy  density   DIIS  
       r  t  s  t  d       total energy    change  change    error 
  
etot    1  N  N  2  U    -926.44817134859           2.6E-05  3.5E-04
etot    2  N  Y  2  U    -926.44819282872  2.1E-05  2.0E-05  7.1E-05
etot    3  N  Y  2  U    -926.44818993285 -2.9E-06  1.8E-05  2.5E-04
etot    4  N  Y  2  U    -926.44819336444  3.4E-06  3.7E-06  8.1E-05
etot    5  N  N  2  U    -926.44819360199  2.4E-07  0.0E+00  0.0E+00
  
  
 Energy components, in hartrees:
   (A)  Nuclear repulsion............    1828.57478324770
   (E)  Total one-electron terms.....   -4869.11436652554
   (I)  Total two-electron terms.....    2114.09138967585
   (L)  Electronic energy............   -2755.02297684969  (E+I)
   (N)  Total energy.................    -926.44819360199  (A+L)
   (O)  Gas phase energy.............    -926.44819360199
  
                                 Total             Coulomb       Exchange+Corr.
 Total two-electron terms    2114.09138967585    2248.52830450188    -134.43691482603
   Hamiltonian  1........    1082.90240637877    1130.77845774845     -47.87605136968
   Hamiltonian  2........    1070.28321418053    1117.74984675343     -47.46663257290
  
 SCFE: SCF energy: UDFT(b3lyp)      -926.44819360199 hartrees   iterations:   5
  
 
 Alpha HOMO energy:    -0.35248
 Alpha LUMO energy:    -0.18049
 
  Alpha Orbital energies (hartrees): 
   -19.37258   -19.24027   -10.45251   -10.38885   -10.37099   -10.37041
   -10.36390   -10.36063   -10.35587   -10.33184   -10.31918   -10.30866
   -10.30369   -10.30037   -10.29852   -10.28963   -10.28349   -10.28092
   -10.27972   -10.27760   -10.27537   -10.25546    -1.26664    -1.12040
    -1.04167    -0.98165    -0.95177    -0.94220    -0.90086    -0.89972
    -0.86565    -0.85539    -0.83661    -0.81068    -0.79278    -0.77790
    -0.76664    -0.75519    -0.72566    -0.72036    -0.69616    -0.67298
    -0.65587    -0.64922    -0.64359    -0.62554    -0.60971    -0.60404
    -0.60076    -0.59251    -0.58454    -0.57524    -0.56393    -0.55840
    -0.55074    -0.54466    -0.53798    -0.53348    -0.51637    -0.51049
    -0.50720    -0.49636    -0.49056    -0.48593    -0.47606    -0.47099
    -0.46953    -0.45583    -0.45032    -0.44399    -0.43128    -0.42727
    -0.41862    -0.41703    -0.40990    -0.39809    -0.39428    -0.37949
    -0.36668    -0.35248    -0.18049    -0.16986    -0.09289    -0.06752
    -0.04656    -0.04090    -0.03919    -0.02676    -0.01747    -0.01557
 
 
 Beta HOMO energy:    -0.34701
 Beta LUMO energy:    -0.32689
 
  Beta Orbital energies (hartrees): 
   -19.36792   -19.23950   -10.44944   -10.38369   -10.37090   -10.36911
   -10.36391   -10.36047   -10.35528   -10.33177   -10.31914   -10.30852
   -10.30316   -10.30031   -10.29838   -10.28958   -10.28336   -10.28059
   -10.27966   -10.27751   -10.27516   -10.25545    -1.25667    -1.11873
    -1.03460    -0.97891    -0.94984    -0.93799    -0.89824    -0.89485
    -0.86436    -0.85401    -0.83539    -0.80842    -0.78953    -0.77600
    -0.76400    -0.75450    -0.72436    -0.71787    -0.69430    -0.67206
    -0.65331    -0.64748    -0.64089    -0.62424    -0.60753    -0.60027
    -0.59304    -0.58501    -0.57825    -0.57433    -0.56169    -0.55522
    -0.54885    -0.54068    -0.53607    -0.52586    -0.51515    -0.50813
    -0.50407    -0.49445    -0.48511    -0.48331    -0.47298    -0.46986
    -0.46555    -0.45142    -0.44917    -0.44297    -0.43029    -0.42666
    -0.41589    -0.41296    -0.40853    -0.39751    -0.37624    -0.36535
    -0.34701    -0.32689    -0.16050    -0.15179    -0.09110    -0.06691
    -0.04544    -0.03940    -0.03165    -0.02569    -0.01559
 
  
  
    Unrestricted Spin Properties ...
    Sz*(Sz+1)      0.750
    <S**2> ...     0.757
  
  
  Peak memory usage:   6749 Mb
  
  end of program scf
   
 Time(scf)  user:      149.8  user+sys:      149.8  wallclock:       10.8
  
  start of program der1a
  
  Peak memory usage:   4838 Mb
  
  end of program der1a
   
 Time(der1a)  user:        2.5  user+sys:        2.5  wallclock:        0.5
  
  start of program rwr
  
  Peak memory usage:   4748 Mb
  
  end of program rwr
   
 Time(rwr)  user:       52.6  user+sys:       52.6  wallclock:        6.2
  
  start of program der1b
  
   
  forces (hartrees/bohr) : total     
   
 atom  label           x              y              z
 ---- --------   -------------  -------------  -------------
    1 C1          4.312004E-05   1.089341E-04   1.125953E-05
    2 C2          2.834388E-05   9.425391E-05   4.948848E-05
    3 C3          6.777656E-05   5.349344E-05   6.578573E-05
    4 C4          7.537849E-05  -2.064015E-05   5.631860E-05
    5 C5         -1.489084E-05   7.011289E-05   3.550853E-05
    6 H6          4.289623E-05  -5.392544E-06   3.636813E-05
    7 C7         -1.676973E-05   2.713807E-05   3.063472E-05
    8 C8          2.299655E-05  -1.065250E-05  -1.969910E-05
    9 C9         -1.741110E-06  -2.374553E-05  -8.693833E-06
   10 C10         2.049941E-05  -2.750328E-05   6.691995E-06
   11 C11         2.478284E-05  -9.713054E-06  -5.016629E-06
   12 C12         4.671835E-05   7.517435E-06   1.912387E-06
   13 C13         1.747648E-05   3.542983E-06  -9.389908E-06
   14 C14         2.425467E-05   1.465945E-05   3.920674E-07
   15 C15         2.956712E-05   1.346359E-05   2.908655E-05
   16 H16         2.372705E-05   4.618914E-05   1.723636E-05
   17 C17         1.995824E-05   3.977411E-05   2.882357E-05
   18 H18         5.613508E-05   6.915299E-05   2.493183E-05
   19 C19         4.066138E-05   5.001920E-06   6.237631E-06
   20 C20         4.116744E-05   5.583484E-05   1.024966E-04
   21 C21         9.423544E-06   1.013081E-04  -3.774553E-06
   22 C22         1.203775E-04   2.485346E-05   9.465724E-05
   23 C23        -6.645598E-05   1.509600E-04   4.245764E-05
   24 O24         9.407450E-05   1.198083E-05   8.091512E-05
   25 O25         9.075983E-06  -4.567723E-05  -8.122241E-06
   26 H26         4.650852E-05   7.480410E-05   3.102604E-05
   27 H27         2.902833E-05   7.460224E-05   2.373076E-05
   28 H28         5.330988E-05   8.243286E-05   5.160012E-05
   29 H29         4.649383E-05   4.074495E-05   7.271949E-05
   30 H30         4.775243E-05   2.869310E-05   5.559048E-05
   31 H31         3.711663E-05   3.433966E-05   3.187308E-05
   32 H32         4.493379E-05   1.727870E-05   6.639252E-05
   33 H33         3.160570E-05  -7.331552E-06   3.290517E-05
   34 H34         3.261613E-05  -2.469488E-05   2.871092E-05
   35 H35        -6.838091E-07  -2.537946E-05  -3.049306E-05
   36 H36         2.255694E-06   1.732631E-05  -2.120408E-05
   37 H37        -1.994396E-06   2.226496E-07  -1.948942E-05
   38 H38         2.196024E-05   2.999285E-05   1.511723E-06
   39 H39         1.168702E-05   2.210094E-06   5.057336E-06
   40 H40         4.399644E-05   2.466338E-05   4.500914E-05
   41 H41         3.267175E-05   8.796486E-06   3.939675E-05
   42 H42         2.580420E-05   3.750922E-05   6.218930E-05
   43 H43         4.251519E-05   3.847979E-05   6.792363E-05
   44 H44         6.185181E-05   9.597827E-05   6.649211E-05
   45 H45         5.800214E-05   6.295141E-05   9.354707E-05
   46 H46         8.354406E-06  -4.683865E-05  -2.147598E-05
 -------------   -------------  -------------  -------------
     total        1.434340E-03   1.321629E-03   1.349520E-03
   
  Peak memory usage:   6742 Mb
  
  end of program der1b
   
 Time(der1b)  user:       67.2  user+sys:       67.2  wallclock:        4.8
  
  start of program geopt
  
 ----------------------------------------------------------------------------
  Geometry optimization step 37
  Total energy:      -926.44819360199 hartrees
 ----------------------------------------------------------------------------
  
  energy change:           1.0577E-05 *  (  5.0000E-05 )
  gradient maximum:        2.0338E-04 *  (  4.5000E-04 )
  gradient rms:            4.0202E-05 #  (  3.0000E-04 )
  displacement maximum:    2.1861E-03 .  (  1.8000E-03 )
  displacement rms:        3.6928E-04 *  (  1.2000E-03 )
  
  predicted energy change:  -3.4008E-07
  step size:     0.00454
  trust radius:  0.05303
  
  ********************************************************
  **           Geometry optimization complete           **
  ********************************************************
  
  Checking the geometry optimization convergence pattern ...
  
  WARNING:
  The energy on the last optimization iteration,
     -926.448193601985
  is higher than the energy on one of the previous iterations,
     -926.448204178986
  The difference between these two energies is 0.007 kcal/mole.
  This situation is symptomatic of potential problems with the
  initial and/or the converged structures.
  
  best                    worst
  ==0=====1=====2=====3=====4==
                      ^        
  
  Convergence category 3: convergence to a non-optimal structure.
  The difference between the final and the minimal
  energies is less than 0.010 kcal/mole.
  Peudospectral approximation:
  Geometry optimization was OK.
  
  Number of imaginary frequencies:   0
  
  center of mass moved by:
     x:     0.0000E+00     y:     0.0000E+00     z:     0.0000E+00
  
  final geometry: 
                                   angstroms
  atom               x                 y                 z
  C1            0.7324464769     -0.6456220187     -1.0094892772 
  C2            1.9732470933     -0.0523801432     -0.3184197178 
  C3            1.5703515315      0.6184276800      1.0234599822 
  C4            1.2618069478     -0.3933869838      2.1481935928 
  C5            2.4823823207     -1.3363274047      2.3771731150 
  H6            3.3415630337     -0.6741241434      2.6139099952 
  C7            2.3496005028     -2.2552219940      3.5637029515 
  C8            1.8015214355     -1.7557095862      4.7921358301 
  C9            1.7082953619     -2.5389303653      5.9174337607 
  C10           2.1744157918     -3.8852563332      5.8515737894 
  C11           2.7350161185     -4.4043277220      4.6595285687 
  C12           2.8278537007     -3.6224175033      3.5215323902 
  C13           3.4254210010     -4.2009719338      2.2563545544 
  C14           3.9241959032     -3.1210034923      1.2804455664 
  C15           2.8165101538     -2.0786251908      1.0565285000 
  H16           1.9066641763     -2.6306947086      0.7684761783 
  C17           3.1183568270     -1.0882291096     -0.0912381696 
  H18           3.2023922519     -1.6886371655     -1.0074971435 
  C19           4.4265792496     -0.2476706310      0.0483024527 
  C20           4.1268787379      1.1380350131     -0.5871854447 
  C21           2.7004584833      1.0167641899     -1.2244020906 
  C22           2.8038370163      0.5938551880     -2.6250055388 
  C23           2.9162970514      0.2865067915     -3.7947941246 
  O24           1.9500571026      2.2633580001     -1.1285381221 
  O25           2.1219104521     -4.7283824774      6.9019872515 
  H26           0.1934689430     -1.3388469317     -0.3546286011 
  H27           1.0059720610     -1.1875879216     -1.9195591072 
  H28           0.0403118528      0.1564924819     -1.2867877343 
  H29           0.6983422910      1.2561059462      0.8544193122 
  H30           2.3678090524      1.2840847574      1.3736388454 
  H31           0.3855805376     -1.0069097823      1.9036426549 
  H32           1.0099790545      0.1722036432      3.0516995179 
  H33           1.4615462363     -0.7294546840      4.8363084650 
  H34           1.2976454941     -2.1444363424      6.8412707823 
  H35           3.0888956346     -5.4286589677      4.6707936147 
  H36           2.6516733133     -4.8016395219      1.7524646002 
  H37           4.2268986374     -4.8999410588      2.5212162313 
  H38           4.2027222723     -3.5921750992      0.3313836211 
  H39           4.8289608982     -2.6389842241      1.6741752510 
  H40           5.2620140495     -0.7487117804     -0.4494259971 
  H41           4.7205746129     -0.1213418294      1.0987205142 
  H42           4.8703452790      1.4302544369     -1.3325509824 
  H43           4.0823590306      1.9318577068      0.1633102240 
  H44           3.0054760884      0.0181093837     -4.8218182924 
  H45           2.1083768401      2.8252979762     -1.9138447493 
  H46           1.7307762993     -4.3606004520      7.7231576327 
   
  principal moments of inertia:
        amu*angstrom^2:      638.04483     3529.98073     3798.58727
                g*cm^2: 1.05949823E-37 5.86167018E-37 6.30770177E-37
   
  rotational constants:
               cm^(-1):      0.02642076      0.00477556      0.00443787
                   GHz:      0.79207445      0.14316764      0.13304394
   
  nuclear repulsion energy.......    1828.574783248 hartrees
  -------------------------------------------------
 /  end of geometry optimization iteration  37   /
 -------------------------------------------------
   
  Peak memory usage:   4822 Mb
  
  end of program geopt
   
 Time(geopt)  user:       12.1  user+sys:       12.1  wallclock:        1.1
  
  start of program ch
  
  Moments from quantum mechanical wavefunction:
  Dipole Moments  (Debye)
     X=    -0.2497     Y=    -4.2211     Z=     8.2888  Tot=     9.3050
  
  gridpoints used for charge fit        20761
    out of a possible maximum of        21949
  
   Electrostatic potential fitting constrained to reproduce
     total charge:                yes
     dipole moment:               yes
     traceless quadrupole moment: no 
     traceless octapole moment:   no 
  
  Atomic charges from electrostatic potential: 
   
 Atom       C1           C2           C3           C4           C5      
 Charge   -0.43633      0.30471     -0.13452     -0.09639     -0.05480
   
 Atom       H6           C7           C8           C9           C10     
 Charge    0.09294      0.10815     -0.12513     -0.32158      0.63890
   
 Atom       C11          C12          C13          C14          C15     
 Charge   -0.37168      0.16041     -0.13690     -0.10978      0.09924
   
 Atom       H16          C17          H18          C19          C20     
 Charge    0.02699     -0.15058      0.05611     -0.06183     -0.19243
   
 Atom       C21          C22          C23          O24          O25     
 Charge    0.40234     -0.08287     -0.32464     -0.73180     -0.58022
   
 Atom       H26          H27          H28          H29          H30     
 Charge    0.10436      0.10711      0.13195      0.08840      0.05940
   
 Atom       H31          H32          H33          H34          H35     
 Charge    0.05409      0.04667      0.18983      0.19421      0.21443
   
 Atom       H36          H37          H38          H39          H40     
 Charge    0.08681      0.09869      0.07699      0.04250      0.05685
   
 Atom       H41          H42          H43          H44          H45     
 Charge    0.03485      0.08639      0.08220      0.28565      0.47969
   
 Atom       H46     
 Charge    0.50061
  
  sum of atomic charges:     1.000000
   
 RMS Error   5.61E-04 hartrees
 
  
  Moments from electrostatic potential charges:
  Dipole Moments  (Debye)
     X=    -0.2497     Y=    -4.2211     Z=     8.2888  Tot=     9.3050
  
  Peak memory usage:   4833 Mb
  
  end of program ch
   
 Time(ch)  user:        7.9  user+sys:        7.9  wallclock:        3.6

 Total cpu seconds     user:   15759.741   user+sys:   15759.741
  
 Total elapsed time:    1432 seconds

Job ethynylestradiol_2 completed on n051 at Sun Jan  8 22:48:33 2017
