Job ethynylestradiol_4 started on n053 at Sun Jan  8 22:24:44 2017
jobid: u01-0-58730273

  +--------------------------------------------------------------------+
  |  Jaguar version 9.3, release  15                                   |
  |                                                                    |
  |  Copyright Schrodinger, Inc.                                       |
  |  All Rights Reserved.                                              |
  |                                                                    |
  |  The following have contributed to Jaguar (listed alphabetically): |
  |  Mike Beachy, Art Bochevarov, Dale Braden, Yixiang Cao,            |
  |  Chris Cortis, Rich Friesner, Bill Goddard, Hod Greeley,           |
  |  Tom Hughes, Leif Jacobson, Jean-Marc Langlois,                    |
  |  Daniel Mainz, Rob Murphy, Dean Philipp,                           |
  |  Tom Pollard, Murco Ringnalda, Mark Watson.                        |
  |                                                                    |
  |  Use of this program should be acknowledged in publications as:    |
  |                                                                    |
  |  Jaguar, version 9.3, Schrodinger, Inc., New York, NY, 2016.       |
  |                                                                    |
  |  A. D. Bochevarov, E. Harder, T. F. Hughes, J. R. Greenwood,       |
  |  D. A. Braden, D. M. Philipp, D. Rinaldo, M. D. Halls,             |
  |  J. Zhang, R. A. Friesner, "Jaguar: A High-Performance Quantum     |
  |  Chemistry Software Program with Strengths in Life and Materials   |
  |  Sciences", Int. J. Quantum Chem., 2013, 113(18), 2110-2142.       |
  +--------------------------------------------------------------------+
  
  start of program pre
  
  Job name: ethynylestradiol_4
  Executables used: /home/applications/Schrodinger_Suites_2016-3/jaguar-v9.3/bin/Linux-x86_64
  Temporary files : /scratch/Schrodinger_Suites/pbeni001/ethynylestradiol_4#u01-0-58730273
  Maestro file (input):  ethynylestradiol_4.mae
  Maestro file (output): ethynylestradiol_4.01.mae
  
  basis set:             6-31g                           
  net molecular charge:    1
  multiplicity:            2
  
  Using up to  16 threads per process
  
  number of basis functions....          246
  
 Input geometry:
                                   angstroms
  atom               x                 y                 z
  C1            0.6959401000     -0.0539908000      0.0821065000 
  C2            2.1116945000     -0.2378754000     -0.3509587000 
  C3            2.8121040000     -1.9220614000      0.0722367000 
  C4            4.5440654000     -1.9328319000      0.0673483000 
  C5            5.1359413000     -1.0301900000      1.1991929000 
  H6            4.8361457000     -1.5049171000      2.1397831000 
  C7            6.6329335000     -0.8798038000      1.1664670000 
  C8            7.3459483000     -2.0687262000      1.3319014000 
  C9            8.7261314000     -2.0806428000      1.2362735000 
  C10           9.3946340000     -0.8995874000      0.9403358000 
  C11           8.7131201000      0.2970688000      0.7823423000 
  C12           7.3305322000      0.3376744000      0.9556410000 
  C13           6.6831990000      1.6992352000      0.8873572000 
  C14           5.2121345000      1.5522804000      0.7183979000 
  C15           4.4587620000      0.3068568000      1.1123514000 
  H16           4.1373696000      0.5827336000      2.1410564000 
  C17           3.3615361000      0.1319277000      0.0570343000 
  H18           2.8055439000     -0.1577544000      1.0026923000 
  C19           3.1749250000     -0.6814152000     -1.7591862000 
  C20           2.3546740000      0.3493096000     -2.5996029000 
  C21           2.7858068000      1.1204859000     -1.4686227000 
  C22           4.3645568000      1.2717491000     -1.9925751000 
  C23           5.5520904000      1.0133746000     -2.2309423000 
  O24           2.2957307000      2.3935879000     -1.1989279000 
  O25          10.7498251000     -0.8619720000      0.8176234000 
  H26           0.4679629000     -0.6506485000      0.9668742000 
  H27           0.0885282000     -0.4499337000     -0.7403770000 
  H28           0.4077188000      0.9831054000      0.2541688000 
  H29           2.4301485000     -2.6895629000     -0.6155004000 
  H30           2.4774470000     -2.2061230000      1.0765414000 
  H31           4.9967717000     -1.4766981000     -0.8255443000 
  H32           4.9297868000     -2.9499866000     -0.0031462000 
  H33           6.8015210000     -2.9888549000      1.5323088000 
  H34           9.2433980000     -3.0195779000      1.3843178000 
  H35           9.2591025000      1.2018840000      0.5274683000 
  H36           7.0542948000      2.2163390000     -0.0218140000 
  H37           6.9205001000      2.3418468000      1.7326383000 
  H38           5.3167101000      1.2470401000     -0.2603451000 
  H39           4.6247167000      2.4814265000      0.6142336000 
  H40           2.4617693000     -1.5285082000     -1.9516816000 
  H41           4.0496095000     -1.0844585000     -2.2847946000 
  H42           1.2697030000      0.2377416000     -2.6260674000 
  H43           2.7589288000      0.6765892000     -3.5537399000 
  H44           6.5408706000      0.6730642000     -1.9791482000 
  H45           1.3590779000      2.2949065000     -1.0034391000 
  H46          11.0940001000     -1.7466718000      1.0151993000 
   
  principal moments of inertia:
        amu*angstrom^2:      767.59858     2708.10643     2968.29900
                g*cm^2: 1.27462727E-37 4.49691597E-37 4.92897583E-37
   
  rotational constants:
               cm^(-1):      0.02196152      0.00622488      0.00567922
                   GHz:      0.65838971      0.18661711      0.17025879
   
  Molecular weight:     296.18 amu
   
  Stoichiometry: C20H24O2
  Molecular Point Group: C1      
  Point Group used: C1
  
 
Number of optimization coordinates:   145
Number of independent coordinates:    145
Number of non-redundant coordinates:  132
Number of frozen coordinates:           0
Number of harmonic constraints:         0
 
Number of geometric degrees of freedom:   132
Maximum geometric degrees of freedom:     132
 " " " " " excluding dummy atoms:         132
 
  nuclear repulsion energy.......    1907.764944690 hartrees
 
 Non-default options chosen:
   SCF calculation type: UDFT(b3lyp)                 
   UDFT=Becke_3_Parameter/HF+Slater+Becke88+VWN+LYP (B3LYP)
   Geometry will be optimized in redundant internal coordinates
   Electrostatic potential fit to point charges on atomic centers
   Electrostatic potential fitting constrained to reproduce
     total charge:                yes
     dipole moment:               yes
     traceless quadrupole moment: no 
     traceless octapole moment:   no 
  
 Temporary integer options set:
     73=  2
  
  Peak memory usage:   4803 Mb
  
  end of program pre
   
 Time(pre)  user:        7.0  user+sys:        7.0  wallclock:        1.0
  
  start of program onee
  
  smallest eigenvalue of S:    5.113E-04
  number of canonical orbitals.....          246
  Peak memory usage:   4838 Mb
  
  end of program onee
   
 Time(onee)  user:        2.6  user+sys:        2.6  wallclock:        0.5
  
  start of program hfig
  
  initial wavefunction generated automatically from atomic wavefunctions
  
  -------------------
  Alpha orbital space
  -------------------
 
  Irreducible     Total no   No of occupied orbitals 
  representation  orbitals   Shell_1  Shell_2    ...
  No Symm          246         80
  ------------------------
  Orbital occupation/shell    1.000
 
  ------------------
  Beta orbital space
  ------------------
 
  Irreducible     Total no   No of occupied orbitals 
  representation  orbitals   Shell_1  Shell_2    ...
  No Symm          246         79
  ------------------------
  Orbital occupation/shell    1.000
 
  
  
    Unrestricted Spin Properties ...
    Sz*(Sz+1) ..............     0.750
    <S**2> of initial guess      0.750
  
  
  Peak memory usage:   4756 Mb
  
  end of program hfig
   
 Time(hfig)  user:        4.8  user+sys:        4.8  wallclock:        0.9
  
  start of program probe
  
  Peak memory usage:   4756 Mb
  
  end of program probe
   
 Time(probe)  user:        2.1  user+sys:        2.1  wallclock:        0.4
  
  start of program grid
  
   grid     grid set  grid #  grid sym
  ------    --------  ------  --------
  coarse        0        0        1
  medium        2        1        1
  fine          0        0        1
  ultrafine     4        2        1
  charge       -1        3        1
  gradient      4        2        1
  density       0        0        1
  DFT-fine    -11        4        1
  DFT-med.    -10        5        1
  DFT-grad    -12        6        1
  DFT-der2      0        0        1
  DFT-cphf      0        0        1
  LMP2-enrg     4        2        1
  LMP2-grad     2        1        1
  DFT-cphf2     0        0        1
  PBF-dens      0        0        1
  plotting      0        0        1
  Rel-grad    -17        0        1
  
  number of gridpoints: 
     atom        C1       C2       C3       C4       C5       H6       C7
  grid # 1       78       96       86       88       90      106       98
  grid # 2      259      335      306      303      310      427      361
  grid # 3        6        6        6        6        6      662      102
  grid # 4     4304     4304     4304     4304     4304     4304     4304
  grid # 5     1192     1192     1192     1192     1192     1192     1192
  grid # 6     5226     5226     5226     5226     5226     5226     5226
   
  number of gridpoints: 
     atom        C8       C9      C10      C11      C12      C13      C14
  grid # 1       96       97       98       96       98       85       84
  grid # 2      335      333      351      334      357      284      289
  grid # 3      175      222      219      162       87        6        8
  grid # 4     4304     4304     4304     4304     4304     4304     4304
  grid # 5     1192     1192     1192     1192     1192     1192     1192
  grid # 6     5226     5226     5226     5226     5226     5226     5226
   
  number of gridpoints: 
     atom       C15      H16      C17      H18      C19      C20      C21
  grid # 1       88      107       89       96       86       83       94
  grid # 2      311      431      330      381      295      290      332
  grid # 3        6      782       11      189        6        8        6
  grid # 4     4304     4304     4304     4304     4304     4304     4304
  grid # 5     1192     1192     1192     1192     1192     1192     1192
  grid # 6     5226     5226     5226     5226     5226     5226     5226
   
  number of gridpoints: 
     atom       C22      C23      O24      O25      H26      H27      H28
  grid # 1      103       96      109      114      106      107      106
  grid # 2      399      376      423      427      432      429      426
  grid # 3      197      413      605      829      903      818      778
  grid # 4     4304     4304     4304     4304     4304     4304     4304
  grid # 5     1192     1192     1192     1192     1192     1192     1192
  grid # 6     5226     5226     5226     5226     5226     5226     5226
   
  number of gridpoints: 
     atom       H29      H30      H31      H32      H33      H34      H35
  grid # 1      105      109      101      109      113      116      114
  grid # 2      424      424      395      431      435      441      440
  grid # 3      766      691      214      756      819     1143     1002
  grid # 4     4304     4304     4304     4304     4304     4304     4304
  grid # 5     1192     1192     1192     1192     1192     1192     1192
  grid # 6     5226     5226     5226     5226     5226     5226     5226
   
  number of gridpoints: 
     atom       H36      H37      H38      H39      H40      H41      H42
  grid # 1      105      112       92      110      101      104      107
  grid # 2      425      446      368      432      400      407      425
  grid # 3      606     1075       24      769      427      515      664
  grid # 4     4304     4304     4304     4304     4304     4304     4304
  grid # 5     1192     1192     1192     1192     1192     1192     1192
  grid # 6     5226     5226     5226     5226     5226     5226     5226
   
  number of gridpoints: 
     atom       H43      H44      H45      H46    total
  grid # 1      110      109      105      113     4615
  grid # 2      439      438      421      444    17501
  grid # 3     1043      852      805     1251    20646
  grid # 4     4304     4304     4304     4304   197984
  grid # 5     1192     1192     1192     1192    54832
  grid # 6     5226     5226     5226     5226   240396
   
  Peak memory usage:   4790 Mb
  
  end of program grid
   
 Time(grid)  user:       35.4  user+sys:       35.4  wallclock:        2.6
  
  start of program rwr
  
  Peak memory usage:   4745 Mb
  
  end of program rwr
   
 Time(rwr)  user:       58.1  user+sys:       58.1  wallclock:        5.7
  
  start of program scf
  
 number of electrons..........        159
 number of alpha electrons....         80
 number of beta electrons.....         79
 number of alpha orbitals.....        246
 number of beta orbitals......        246
 number of alpha occupied orb..        80
 number of alpha virtual orb...       166
 number of beta occupied orb...        79
 number of beta virtual orb....       167
 SCF type: UDFT=Becke_3_Parameter/HF+Slater+Becke88+VWN+LYP (B3LYP)
 Energy computed with NOPS off.
  
       i  u  d  i  g                   
       t  p  i  c  r                                 RMS    maximum
       e  d  i  u  i                       energy  density   DIIS  
       r  t  s  t  d       total energy    change  change    error 
  
etot    1  N  N  5  M    -922.11541457716           4.0E-02  1.7E-01
etot    2  Y  Y  6  M    -903.15938809080 -1.9E+01  3.5E-02  4.2E-01
etot    3  Y  Y  6  M    -924.48205470425  2.1E+01  1.5E-02  9.7E-02
etot    4  N  Y  2  U    -925.05708355442  5.8E-01  1.3E-02  9.6E-02
etot    5  Y  Y  6  M    -925.38689699647  3.3E-01  6.6E-03  6.7E-02
etot    6  N  Y  2  U    -925.61983459347  2.3E-01  1.9E-03  1.1E-02
etot    7  Y  Y  6  M    -925.63084579409  1.1E-02  8.8E-04  7.3E-03
etot    8  N  Y  2  U    -925.63747052231  6.6E-03  3.6E-04  2.3E-03
etot    9  Y  Y  6  M    -925.63828617585  8.2E-04  2.3E-04  2.2E-03
etot   10  Y  Y  6  M    -925.63874924043  4.6E-04  2.6E-04  1.3E-03
etot   11  Y  Y  6  M    -925.63908686459  3.4E-04  3.7E-04  1.2E-03
etot   12  N  Y  2  U    -925.63956068979  4.7E-04  2.9E-04  1.0E-03
etot   13  Y  Y  6  M    -925.63982047658  2.6E-04  2.7E-04  9.3E-04
etot   14  Y  Y  6  M    -925.64002751916  2.1E-04  2.7E-04  6.6E-04
etot   15  Y  Y  6  M    -925.64017968043  1.5E-04  3.0E-04  5.3E-04
etot   16  N  Y  2  U    -925.64026574146  8.6E-05  1.8E-04  2.5E-04
etot   17  Y  Y  6  M    -925.64030244317  3.7E-05  5.4E-05  1.1E-04
etot   18  Y  Y  6  M    -925.64030947738  7.0E-06  2.3E-05  7.1E-05
etot   19  N  Y  2  U    -925.64029818969 -1.1E-05  6.0E-06  7.4E-05
etot   20  N  Y  2  U    -925.64029826803  7.8E-08  1.2E-05  1.9E-05
etot   21  N  Y  2  U    -925.64029839796  1.3E-07  3.4E-06  9.8E-06
etot   22  N  N  2  U    -925.64029842092  2.3E-08  0.0E+00  0.0E+00
  
  
 Energy components, in hartrees:
   (A)  Nuclear repulsion............    1907.76494468972
   (E)  Total one-electron terms.....   -5023.51259718202
   (I)  Total two-electron terms.....    2190.10735407138
   (L)  Electronic energy............   -2833.40524311064  (E+I)
   (N)  Total energy.................    -925.64029842092  (A+L)
   (O)  Gas phase energy.............    -925.64029842092
  
                                 Total             Coulomb       Exchange+Corr.
 Total two-electron terms    2190.10735407138    2324.61523245994    -134.50787838857
   Hamiltonian  1........    1121.86103375145    1169.75544866853     -47.89441491707
   Hamiltonian  2........    1107.36387253168    1154.85978379141     -47.49591125973
  
 SCFE: SCF energy: UDFT(b3lyp)      -925.64029842092 hartrees   iterations:  22
  
 
 Alpha HOMO energy:    -0.31699
 Alpha LUMO energy:    -0.22822
 
  Alpha Orbital energies (hartrees): 
   -19.32611   -19.26072   -10.48727   -10.44657   -10.42073   -10.37665
   -10.36390   -10.36040   -10.34521   -10.34464   -10.34232   -10.34203
   -10.33449   -10.33299   -10.32016   -10.30422   -10.29947   -10.29326
   -10.29123   -10.28392   -10.27906   -10.27738    -1.23166    -1.16451
    -1.12771    -1.02621    -0.99278    -0.95668    -0.92572    -0.91075
    -0.88814    -0.88207    -0.85582    -0.84813    -0.81442    -0.79743
    -0.77543    -0.76056    -0.74946    -0.72521    -0.71117    -0.70472
    -0.67494    -0.67081    -0.65190    -0.64230    -0.64148    -0.63619
    -0.61534    -0.61246    -0.60209    -0.58690    -0.57874    -0.57329
    -0.56801    -0.56275    -0.55254    -0.53996    -0.53403    -0.52757
    -0.52366    -0.51557    -0.50738    -0.50264    -0.49567    -0.48555
    -0.48363    -0.46628    -0.45957    -0.44850    -0.44331    -0.43577
    -0.43420    -0.41757    -0.39820    -0.37985    -0.34914    -0.33631
    -0.32795    -0.31699    -0.22822    -0.20693    -0.13353    -0.11416
    -0.10752    -0.10137    -0.09295    -0.08558    -0.07869    -0.04893
 
 
 Beta HOMO energy:    -0.31681
 Beta LUMO energy:    -0.24642
 
  Beta Orbital energies (hartrees): 
   -19.32503   -19.26072   -10.48538   -10.43853   -10.40882   -10.37729
   -10.36859   -10.36304   -10.34464   -10.34442   -10.34086   -10.34083
   -10.33454   -10.33257   -10.31972   -10.30421   -10.29946   -10.29334
   -10.29122   -10.28390   -10.27894   -10.27738    -1.22871    -1.16451
    -1.11478    -1.02355    -0.99000    -0.95466    -0.92486    -0.90473
    -0.88691    -0.88064    -0.85384    -0.84787    -0.81457    -0.79259
    -0.77356    -0.75662    -0.74914    -0.72216    -0.70914    -0.70156
    -0.67079    -0.66360    -0.64747    -0.63980    -0.63566    -0.63059
    -0.61358    -0.60843    -0.60036    -0.58398    -0.57634    -0.57190
    -0.56727    -0.56123    -0.55101    -0.53861    -0.53312    -0.52493
    -0.51977    -0.51323    -0.50629    -0.50162    -0.49457    -0.48289
    -0.47939    -0.46410    -0.45683    -0.44685    -0.44158    -0.43494
    -0.43409    -0.41740    -0.39588    -0.37611    -0.34794    -0.32560
    -0.31681    -0.24642    -0.22694    -0.18614    -0.12619    -0.10965
    -0.10472    -0.09921    -0.09234    -0.08230    -0.06763
 
  
  
    Unrestricted Spin Properties ...
    Sz*(Sz+1)      0.750
    <S**2> ...     0.997
  
  
  Peak memory usage:   6749 Mb
  
  end of program scf
   
 Time(scf)  user:      422.3  user+sys:      422.3  wallclock:       29.1
  
  start of program der1a
  
  Peak memory usage:   4838 Mb
  
  end of program der1a
   
 Time(der1a)  user:        2.8  user+sys:        2.8  wallclock:        0.5
  
  start of program rwr
  
  Peak memory usage:   4745 Mb
  
  end of program rwr
   
 Time(rwr)  user:       43.2  user+sys:       43.2  wallclock:        6.2
  
  start of program der1b
  
   
  forces (hartrees/bohr) : total     
   
 atom  label           x              y              z
 ---- --------   -------------  -------------  -------------
    1 C1         -3.569699E-03  -3.497706E-03  -1.879811E-02
    2 C2         -1.437812E-02  -1.637001E-01  -4.849225E-04
    3 C3         -3.679732E-03  -5.659871E-02   2.353625E-02
    4 C4         -1.479694E-02   1.250954E-02  -9.770557E-03
    5 C5         -1.108895E-03  -2.506576E-02   7.902430E-03
    6 H6          1.266334E-03   1.595959E-03   4.586372E-03
    7 C7         -1.553792E-04  -1.257800E-03  -1.828891E-03
    8 C8          2.888677E-03  -9.506423E-04  -1.169722E-03
    9 C9         -6.475472E-03  -1.173435E-02   2.816505E-03
   10 C10        -5.225669E-04   5.525152E-03   2.964347E-04
   11 C11        -1.463552E-03   2.366687E-03   8.219589E-04
   12 C12         4.777508E-03  -2.641846E-03  -3.559821E-04
   13 C13         1.058759E-02   4.746014E-03   1.819779E-02
   14 C14         1.690676E-03   5.793277E-03  -3.419697E-02
   15 C15        -2.614615E-03   4.699253E-02   4.850647E-02
   16 H16        -1.801643E-02  -1.187933E-02  -4.255647E-03
   17 C17         3.432773E-02   1.069971E-01   4.577519E-02
   18 H18         7.010596E-03   1.766078E-02   3.508882E-02
   19 C19        -9.513804E-02  -1.158056E-01  -1.468379E-01
   20 C20        -9.734529E-03  -2.273086E-03  -3.303496E-03
   21 C21         1.057862E-01   1.738340E-01  -4.073369E-02
   22 C22         2.228562E-03   9.719968E-03   1.383940E-02
   23 C23        -3.123162E-02   6.036923E-03   1.100475E-02
   24 O24         7.340483E-03   9.419246E-04   1.167750E-02
   25 O25         1.288804E-02  -4.628530E-04  -1.905377E-03
   26 H26         1.021919E-03  -2.042548E-04   4.732616E-03
   27 H27        -6.501653E-03   5.623388E-04   4.026705E-03
   28 H28        -4.159140E-04   3.688463E-03   2.214824E-03
   29 H29         4.089495E-03  -1.307037E-03   8.553830E-03
   30 H30         3.565516E-04   6.697361E-04   1.004404E-02
   31 H31        -1.135004E-02  -5.796466E-03   1.795900E-03
   32 H32        -8.404624E-03  -7.313174E-03   1.502063E-02
   33 H33         2.528623E-03   4.234201E-04   2.107758E-04
   34 H34         5.552622E-03  -4.623279E-04  -4.325541E-04
   35 H35         1.202851E-03  -2.559008E-03   3.676324E-03
   36 H36         4.848152E-04   1.073770E-03   8.449178E-03
   37 H37         1.056358E-02  -1.458898E-03   7.328518E-03
   38 H38        -6.889825E-03   7.652578E-03  -4.235137E-02
   39 H39         1.312355E-03  -7.828708E-03   1.793466E-02
   40 H40         1.793266E-02  -3.352224E-04   2.048471E-03
   41 H41         6.198711E-03   1.433019E-02   1.878617E-02
   42 H42        -2.803410E-04  -1.406354E-02  -4.540627E-03
   43 H43         2.384710E-03   5.147583E-04  -1.099256E-03
   44 H44         2.121650E-03   6.132383E-03  -1.620681E-02
   45 H45        -2.238014E-02   1.162627E-02   1.161150E-04
   46 H46         1.286715E-02  -4.174564E-03  -6.379647E-04
 -------------   -------------  -------------  -------------
     total        3.019164E-04   2.276675E-05   7.876352E-05
   
  Peak memory usage:   6742 Mb
  
  end of program der1b
   
 Time(der1b)  user:       68.8  user+sys:       68.8  wallclock:        4.8
  
  start of program geopt
  
 ----------------------------------------------------------------------------
  Geometry optimization step  1
  Total energy:      -925.64029842092 hartrees
 ----------------------------------------------------------------------------
  
  
  Level shifts adjusted to satisfy step-size constraints
   Step size:    0.3000544
   Cos(theta):   0.8687194
   Final level shift:  -1.5353448E+00
  
  gradient maximum:        3.8022E-01 .  (  4.5000E-04 )
  gradient rms:            7.3616E-02 .  (  3.0000E-04 )
  displacement maximum:    1.0093E-01 .  (  1.8000E-03 )
  displacement rms:        2.1236E-02 .  (  1.2000E-03 )
  
  predicted energy change:  -1.6321E-01
  step size:     0.25572
  trust radius:  0.30000
  
  molecular structure not yet converged...
  
  center of mass moved by:
     x:    -2.9736E-03     y:     2.0682E-02     z:    -4.2166E-03
  
  new geometry: 
                                   angstroms
  atom               x                 y                 z
  C1            0.7587200919     -0.2938934839     -0.0114298374 
  C2            2.1901289975     -0.3606561785     -0.4327076636 
  C3            2.7797320859     -2.0241541559      0.2795892347 
  C4            4.5094539670     -2.0388854729      0.2303169334 
  C5            5.1466804257     -1.0383648300      1.2554506589 
  H6            4.8754507763     -1.4204429424      2.2463772060 
  C7            6.6509120602     -0.9102268183      1.2148277649 
  C8            7.3478460730     -2.1007452372      1.4529012733 
  C9            8.7309377926     -2.1436680143      1.3761960877 
  C10           9.4271097826     -0.9896698847      1.0319528558 
  C11           8.7624833072      0.2081649324      0.8065413486 
  C12           7.3751117052      0.2809562761      0.9552088201 
  C13           6.7481012457      1.6482722284      0.8277103297 
  C14           5.2669848003      1.5240166352      0.6485899350 
  C15           4.4778621241      0.3123945019      1.1041070064 
  H16           4.1819983036      0.6508101558      2.1212930547 
  C17           3.4224429186      0.0966364539      0.0058056694 
  H18           2.8929957569     -0.2305240551      0.9608297974 
  C19           3.1500506861     -0.6304274029     -1.9649178274 
  C20           2.2416460454      0.4885143688     -2.6021012369 
  C21           2.7598984194      1.2823107741     -1.4835182025 
  C22           4.2461519330      1.5680394154     -2.1683222678 
  C23           5.4087987410      1.4338745473     -2.5535843778 
  O24           2.2432943062      2.5309652542     -1.1380467010 
  O25          10.7898220763     -0.9799073579      0.9218191708 
  H26           0.5685168917     -0.9290469849      0.8564181557 
  H27           0.1836946085     -0.7124105554     -0.8460499794 
  H28           0.3925472140      0.7149101865      0.1849280228 
  H29           2.3830896027     -2.8576210491     -0.3142954100 
  H30           2.4745711830     -2.1989049761      1.3199376850 
  H31           4.9469761297     -1.7086110016     -0.7211800839 
  H32           4.8831061288     -3.0614003301      0.2989573849 
  H33           6.7910318938     -2.9995705580      1.7067609065 
  H34           9.2326442189     -3.0813210987      1.5804720217 
  H35           9.3260179185      1.0912621927      0.5183240913 
  H36           7.1295380139      2.1241545888     -0.0976865602 
  H37           6.9996333990      2.3156082709      1.6516574395 
  H38           5.3606754514      1.2092103588     -0.3387863033 
  H39           4.6944271151      2.4605121078      0.5507362748 
  H40           2.4657186433     -1.4928327527     -2.1757320788 
  H41           3.9997376842     -0.9434964174     -2.5803546363 
  H42           1.1606448928      0.3485113583     -2.5463328499 
  H43           2.5564099905      0.9355115500     -3.5418301570 
  H44           6.4498702768      1.1870099825     -2.4526828996 
  H45           1.3301758843      2.3977119332     -0.8509995675 
  H46          11.1266523566     -1.8585889968      1.1629662471 
   
  nuclear repulsion energy.......    1870.557155049 hartrees
  -------------------------------------------------
 /  end of geometry optimization iteration   1   /
 -------------------------------------------------
   
  Peak memory usage:   4727 Mb
  
  end of program geopt
   
 Time(geopt)  user:        8.2  user+sys:        8.2  wallclock:        0.6
  
  start of program onee
  
  smallest eigenvalue of S:    5.171E-04
  number of canonical orbitals.....          246
  Peak memory usage:   4838 Mb
  
  end of program onee
   
 Time(onee)  user:        1.8  user+sys:        1.8  wallclock:        0.5
  
  start of program probe
  
  Peak memory usage:   4756 Mb
  
  end of program probe
   
 Time(probe)  user:        1.6  user+sys:        1.6  wallclock:        0.4
  
  start of program grid
  
   grid     grid set  grid #  grid sym
  ------    --------  ------  --------
  coarse        0        0        1
  medium        2        1        1
  fine          0        0        1
  ultrafine     4        2        1
  charge       -1        3        1
  gradient      4        2        1
  density       0        0        1
  DFT-fine    -11        4        1
  DFT-med.    -10        5        1
  DFT-grad    -12        6        1
  DFT-der2      0        0        1
  DFT-cphf      0        0        1
  LMP2-enrg     4        2        1
  LMP2-grad     2        1        1
  DFT-cphf2     0        0        1
  PBF-dens      0        0        1
  plotting      0        0        1
  Rel-grad    -17        0        1
  
  number of gridpoints: 
     atom        C1       C2       C3       C4       C5       H6       C7
  grid # 1       79       95       87       88       91      107      100
  grid # 2      261      343      311      303      314      425      363
  grid # 3        6        6        6        6        6      659      106
  grid # 4     4304     4304     4304     4304     4304     4304     4304
  grid # 5     1192     1192     1192     1192     1192     1192     1192
  grid # 6     5226     5226     5226     5226     5226     5226     5226
   
  number of gridpoints: 
     atom        C8       C9      C10      C11      C12      C13      C14
  grid # 1       96       97       97       96       98       85       84
  grid # 2      338      333      350      335      361      284      291
  grid # 3      176      226      230      184      120        6        8
  grid # 4     4304     4304     4304     4304     4304     4304     4304
  grid # 5     1192     1192     1192     1192     1192     1192     1192
  grid # 6     5226     5226     5226     5226     5226     5226     5226
   
  number of gridpoints: 
     atom       C15      H16      C17      H18      C19      C20      C21
  grid # 1       89      107       91       96       86       80       97
  grid # 2      313      431      337      381      300      293      345
  grid # 3        6      779       11      181        6        9        6
  grid # 4     4304     4304     4304     4304     4304     4304     4304
  grid # 5     1192     1192     1192     1192     1192     1192     1192
  grid # 6     5226     5226     5226     5226     5226     5226     5226
   
  number of gridpoints: 
     atom       C22      C23      O24      O25      H26      H27      H28
  grid # 1      104       98      110      114      106      107      106
  grid # 2      402      383      427      427      423      425      429
  grid # 3      192      450      615      829      816      784      756
  grid # 4     4304     4304     4304     4304     4304     4304     4304
  grid # 5     1192     1192     1192     1192     1192     1192     1192
  grid # 6     5226     5226     5226     5226     5226     5226     5226
   
  number of gridpoints: 
     atom       H29      H30      H31      H32      H33      H34      H35
  grid # 1      112      110      106      109      112      116      115
  grid # 2      435      422      408      429      435      441      440
  grid # 3      825      681      383      737      810     1143     1014
  grid # 4     4304     4304     4304     4304     4304     4304     4304
  grid # 5     1192     1192     1192     1192     1192     1192     1192
  grid # 6     5226     5226     5226     5226     5226     5226     5226
   
  number of gridpoints: 
     atom       H36      H37      H38      H39      H40      H41      H42
  grid # 1      104      113       95      110      105      109      106
  grid # 2      422      446      378      431      418      423      423
  grid # 3      557     1070       57      732      544      620      632
  grid # 4     4304     4304     4304     4304     4304     4304     4304
  grid # 5     1192     1192     1192     1192     1192     1192     1192
  grid # 6     5226     5226     5226     5226     5226     5226     5226
   
  number of gridpoints: 
     atom       H43      H44      H45      H46    total
  grid # 1      109      113      107      113     4655
  grid # 2      438      446      430      446    17639
  grid # 3      997     1075      877     1262    21201
  grid # 4     4304     4304     4304     4304   197984
  grid # 5     1192     1192     1192     1192    54832
  grid # 6     5226     5226     5226     5226   240396
   
  Peak memory usage:   4790 Mb
  
  end of program grid
   
 Time(grid)  user:       31.9  user+sys:       31.9  wallclock:        2.5
  
  start of program rwr
  
  Peak memory usage:   4745 Mb
  
  end of program rwr
   
 Time(rwr)  user:       57.9  user+sys:       57.9  wallclock:        5.7
  
  start of program scf
  
 Energy computed with NOPS off.
  
       i  u  d  i  g                   
       t  p  i  c  r                                 RMS    maximum
       e  d  i  u  i                       energy  density   DIIS  
       r  t  s  t  d       total energy    change  change    error 
  
etot    1  N  N  2  U    -925.69962657719           2.9E-03  1.7E-02
etot    2  Y  Y  6  M    -925.77709822264  7.7E-02  1.2E-03  6.7E-03
etot    3  N  Y  2  U    -925.77179232141 -5.3E-03  7.1E-04  1.2E-02
etot    4  N  Y  2  U    -925.78568398613  1.4E-02  2.4E-04  2.4E-03
etot    5  Y  Y  6  M    -925.78612304706  4.4E-04  2.0E-04  2.5E-03
etot    6  Y  Y  6  M    -925.78655481480  4.3E-04  2.6E-04  1.3E-03
etot    7  Y  Y  6  M    -925.78692384666  3.7E-04  3.3E-04  9.2E-04
etot    8  N  Y  2  U    -925.78726417311  3.4E-04  2.1E-04  7.3E-04
etot    9  Y  Y  6  M    -925.78736492112  1.0E-04  1.1E-04  6.4E-04
etot   10  Y  Y  6  M    -925.78740123719  3.6E-05  5.9E-05  2.7E-04
etot   11  Y  Y  6  M    -925.78740841512  7.2E-06  2.3E-05  1.6E-04
etot   12  N  Y  2  U    -925.78741749801  9.1E-06  7.4E-06  5.5E-05
etot   13  N  Y  2  U    -925.78741778888  2.9E-07  4.0E-06  3.8E-05
etot   14  N  N  2  U    -925.78741790288  1.1E-07  0.0E+00  0.0E+00
  
  
 Energy components, in hartrees:
   (A)  Nuclear repulsion............    1870.55715504905
   (E)  Total one-electron terms.....   -4950.09419990659
   (I)  Total two-electron terms.....    2153.74962695466
   (L)  Electronic energy............   -2796.34457295194  (E+I)
   (N)  Total energy.................    -925.78741790288  (A+L)
   (O)  Gas phase energy.............    -925.78741790288
  
                                 Total             Coulomb       Exchange+Corr.
 Total two-electron terms    2153.74962695466    2288.07855828120    -134.32893132655
   Hamiltonian  1........    1103.57321891310    1151.40072086332     -47.82750195022
   Hamiltonian  2........    1089.24619176289    1136.67783741788     -47.43164565499
  
 SCFE: SCF energy: UDFT(b3lyp)      -925.78741790288 hartrees   iterations:  14
  
 
 Alpha HOMO energy:    -0.31392
 Alpha LUMO energy:    -0.22330
 
  Alpha Orbital energies (hartrees): 
   -19.32404   -19.25796   -10.46271   -10.45372   -10.41804   -10.37960
   -10.37025   -10.36780   -10.34948   -10.34284   -10.34209   -10.33177
   -10.33027   -10.33007   -10.31321   -10.30152   -10.29693   -10.29322
   -10.28839   -10.28534   -10.28135   -10.27471    -1.22046    -1.15840
    -1.09681    -1.01216    -0.98029    -0.95125    -0.91850    -0.90657
    -0.87897    -0.87118    -0.84737    -0.84118    -0.81938    -0.78856
    -0.76822    -0.75154    -0.74715    -0.71868    -0.70474    -0.69166
    -0.66936    -0.66535    -0.65137    -0.63680    -0.63365    -0.62885
    -0.61026    -0.60307    -0.59456    -0.58209    -0.57274    -0.57018
    -0.56581    -0.55580    -0.54961    -0.53343    -0.53079    -0.52545
    -0.52083    -0.51593    -0.50372    -0.49961    -0.49184    -0.48758
    -0.47964    -0.46760    -0.45644    -0.45204    -0.44309    -0.43218
    -0.43086    -0.41438    -0.39910    -0.38547    -0.35331    -0.34405
    -0.33976    -0.31392    -0.22330    -0.20256    -0.12867    -0.11165
    -0.10449    -0.09284    -0.09160    -0.08635    -0.08089    -0.04779
 
 
 Beta HOMO energy:    -0.31393
 Beta LUMO energy:    -0.25250
 
  Beta Orbital energies (hartrees): 
   -19.32263   -19.25795   -10.46052   -10.45142   -10.40755   -10.38019
   -10.36962   -10.36687   -10.34902   -10.34208   -10.34158   -10.33133
   -10.33042   -10.33013   -10.31317   -10.30151   -10.29692   -10.29327
   -10.28836   -10.28519   -10.28134   -10.27471    -1.21711    -1.15838
    -1.08474    -1.00895    -0.97738    -0.94974    -0.91771    -0.90205
    -0.87828    -0.86997    -0.84612    -0.83990    -0.81638    -0.78469
    -0.76585    -0.74900    -0.74603    -0.71673    -0.70222    -0.68877
    -0.66669    -0.65909    -0.64695    -0.63430    -0.62988    -0.62393
    -0.60885    -0.60106    -0.59227    -0.57937    -0.56964    -0.56781
    -0.56476    -0.55463    -0.54775    -0.53244    -0.52902    -0.52170
    -0.51850    -0.51230    -0.50133    -0.49926    -0.49076    -0.48480
    -0.47819    -0.46202    -0.45556    -0.44856    -0.44063    -0.43088
    -0.43017    -0.41413    -0.39814    -0.38425    -0.34579    -0.34131
    -0.31393    -0.25250    -0.21527    -0.18137    -0.12435    -0.10597
    -0.10288    -0.09177    -0.08901    -0.08354    -0.07569
 
  
  
    Unrestricted Spin Properties ...
    Sz*(Sz+1)      0.750
    <S**2> ...     0.757
  
  
  Peak memory usage:   6749 Mb
  
  end of program scf
   
 Time(scf)  user:      308.6  user+sys:      308.6  wallclock:       21.7
  
  start of program der1a
  
  Peak memory usage:   4838 Mb
  
  end of program der1a
   
 Time(der1a)  user:        2.3  user+sys:        2.3  wallclock:        0.5
  
  start of program rwr
  
  Peak memory usage:   4745 Mb
  
  end of program rwr
   
 Time(rwr)  user:       42.1  user+sys:       42.1  wallclock:        6.2
  
  start of program der1b
  
   
  forces (hartrees/bohr) : total     
   
 atom  label           x              y              z
 ---- --------   -------------  -------------  -------------
    1 C1         -1.056695E-02   5.861095E-03  -2.539061E-02
    2 C2          6.403490E-02  -1.816946E-01   6.429396E-04
    3 C3          3.320542E-02  -2.409732E-02  -1.731987E-02
    4 C4         -2.120190E-02   7.005703E-03  -8.882318E-03
    5 C5         -8.320903E-04  -1.692753E-02   1.474630E-02
    6 H6         -7.653211E-04   1.388210E-04   3.386684E-03
    7 C7          9.658815E-04  -4.175996E-03  -3.884299E-03
    8 C8          3.497931E-03  -3.973027E-05  -1.336068E-03
    9 C9         -6.774254E-03  -9.514516E-03   3.163390E-03
   10 C10         1.098538E-05   5.049430E-03  -7.733882E-04
   11 C11        -2.225124E-03   1.823016E-03   1.215357E-03
   12 C12         4.922328E-03  -3.623887E-03  -4.790640E-05
   13 C13         7.970544E-03   4.038549E-03   1.757367E-02
   14 C14         4.722533E-03   1.078718E-03  -4.157906E-02
   15 C15         1.357072E-02   3.936451E-02   3.676342E-02
   16 H16        -2.247134E-02  -1.213642E-02  -5.243127E-03
   17 C17        -1.972086E-02   1.117048E-01   3.865296E-02
   18 H18        -2.462706E-04   2.440709E-02   2.981894E-02
   19 C19        -1.557759E-01  -9.498521E-02  -8.767292E-02
   20 C20         3.742996E-03  -8.006798E-03   1.590046E-02
   21 C21         1.145736E-01   1.576543E-01  -3.925671E-02
   22 C22        -1.236995E-02  -1.516845E-03   3.063376E-02
   23 C23        -1.965124E-02   3.997711E-04   1.872983E-02
   24 O24         2.702967E-03  -5.984097E-03   8.479366E-03
   25 O25         9.305580E-03  -6.471895E-04  -1.209094E-03
   26 H26         2.307899E-03   2.510305E-03   1.830524E-03
   27 H27        -6.301399E-03   1.436235E-04   4.203346E-03
   28 H28        -1.071866E-03   3.690883E-03   2.196864E-04
   29 H29         3.469811E-03   1.700224E-03  -9.621135E-04
   30 H30        -3.379457E-03   7.933697E-03   3.457919E-03
   31 H31        -1.400144E-02  -2.027680E-03  -6.606747E-03
   32 H32        -6.138207E-03  -3.499768E-03   1.239513E-02
   33 H33         1.982817E-03   1.982333E-04  -4.210247E-04
   34 H34         4.639240E-03  -3.862747E-04  -2.708752E-04
   35 H35         1.242339E-03  -1.925987E-03   3.575680E-03
   36 H36         7.613184E-04   1.756126E-03   8.208871E-03
   37 H37         8.590136E-03  -1.675172E-03   6.384953E-03
   38 H38        -7.805142E-03   3.390417E-03  -4.153359E-02
   39 H39         1.888810E-03  -6.172835E-03   1.620330E-02
   40 H40         1.453797E-02  -1.037568E-02  -3.181658E-03
   41 H41         1.910995E-02   1.250266E-02   3.208760E-02
   42 H42         7.939264E-04  -1.210278E-02  -6.055944E-03
   43 H43        -1.923431E-03  -3.448891E-03  -4.069861E-03
   44 H44        -1.119755E-03   7.022136E-03  -1.544891E-02
   45 H45        -1.770491E-02   9.485690E-03   3.410478E-03
   46 H46         1.050726E-02  -3.038464E-03  -4.959593E-04
 -------------   -------------  -------------  -------------
     total        1.011089E-03   8.560935E-04   4.251803E-05
   
  Peak memory usage:   6742 Mb
  
  end of program der1b
   
 Time(der1b)  user:       64.9  user+sys:       64.9  wallclock:        4.6
  
  start of program geopt
  
 ----------------------------------------------------------------------------
  Geometry optimization step  2
  Total energy:      -925.78741790288 hartrees
 ----------------------------------------------------------------------------
  
  
  Level shifts adjusted to satisfy step-size constraints
   Step size:    0.3002799
   Cos(theta):   0.9736566
   Final level shift:  -1.4768840E+00
  
  energy change:          -1.4712E-01 .  (  5.0000E-05 )
  gradient maximum:        2.6102E-01 .  (  4.5000E-04 )
  gradient rms:            4.5262E-02 .  (  3.0000E-04 )
  displacement maximum:    1.0310E-01 .  (  1.8000E-03 )
  displacement rms:        1.9504E-02 .  (  1.2000E-03 )
  
  predicted energy change:  -1.1662E-01
  step size:     0.23486
  trust radius:  0.30000
  
  molecular structure not yet converged...
  
  center of mass moved by:
     x:     8.5543E-03     y:     1.0854E-02     z:    -1.1254E-02
  
  new geometry: 
                                   angstroms
  atom               x                 y                 z
  C1            0.7575528567     -0.3692019782      0.0385034008 
  C2            2.1897154032     -0.4109786822     -0.3917978311 
  C3            2.8687125956     -2.1155254166      0.1531597772 
  C4            4.5871969433     -2.0663247932      0.2220823404 
  C5            5.1640098516     -1.0435726834      1.2694848452 
  H6            4.8574494029     -1.4194582229      2.2534000737 
  C7            6.6737811108     -0.9217780631      1.2617254347 
  C8            7.3616088649     -2.1190591498      1.5114316708 
  C9            8.7478232690     -2.1733702736      1.4749796424 
  C10           9.4642247563     -1.0202339534      1.1633591043 
  C11           8.8087541827      0.1830501946      0.9300578706 
  C12           7.4152880154      0.2640773981      1.0351816698 
  C13           6.7965498259      1.6355563391      0.9074665376 
  C14           5.3126314898      1.5281385269      0.6761299064 
  C15           4.4928877017      0.3202047012      1.1114814789 
  H16           4.1486530394      0.6364048934      2.1198297821 
  C17           3.4355894777      0.0877067756      0.0129571180 
  H18           2.9374982244     -0.1915767815      1.0051740213 
  C19           2.9562146310     -0.6805756173     -2.0257108953 
  C20           2.0662316813      0.5236846629     -2.5466490457 
  C21           2.7591267353      1.4135135466     -1.5590464528 
  C22           4.1465320504      1.6321486631     -2.4229411413 
  C23           5.2494970275      1.4802261875     -2.9372572690 
  O24           2.3202802269      2.7065326910     -1.2599128676 
  O25          10.8347464042     -1.0168341553      1.0898191610 
  H26           0.5929285929     -0.9791493355      0.9292764088 
  H27           0.1816834964     -0.8323285949     -0.7716412992 
  H28           0.3644651564      0.6363921175      0.2022291867 
  H29           2.5479923146     -2.9719887417     -0.4526591287 
  H30           2.4950698740     -2.2776163535      1.1739455276 
  H31           5.0494731880     -1.7524955007     -0.7230292221 
  H32           4.9827746914     -3.0731204439      0.3666962634 
  H33           6.7969829749     -3.0167140943      1.7502901932 
  H34           9.2397588440     -3.1152680687      1.6868346219 
  H35           9.3848909833      1.0662662087      0.6704682901 
  H36           7.2037224768      2.1236607702      0.0014894165 
  H37           7.0346567438      2.2858691226      1.7508427897 
  H38           5.4238318548      1.2557571293     -0.3328090438 
  H39           4.7464037089      2.4694205998      0.6191795764 
  H40           2.2684151488     -1.5555415477     -2.1578707258 
  H41           3.7509601071     -0.9945163176     -2.7072673013 
  H42           0.9896640542      0.4482836914     -2.3826444101 
  H43           2.3145594888      0.9703964404     -3.5066741127 
  H44           6.2975488158      1.2496012667     -2.9685084125 
  H45           1.4451720051      2.6393524920     -0.8452060831 
  H46          11.1685540186     -1.8992449245      1.3282234199 
   
  nuclear repulsion energy.......    1838.266425064 hartrees
  -------------------------------------------------
 /  end of geometry optimization iteration   2   /
 -------------------------------------------------
   
  Peak memory usage:   4727 Mb
  
  end of program geopt
   
 Time(geopt)  user:        7.9  user+sys:        7.9  wallclock:        0.6
  
  start of program onee
  
  smallest eigenvalue of S:    5.208E-04
  number of canonical orbitals.....          246
  Peak memory usage:   4838 Mb
  
  end of program onee
   
 Time(onee)  user:        2.0  user+sys:        2.0  wallclock:        0.5
  
  start of program probe
  
  Peak memory usage:   4756 Mb
  
  end of program probe
   
 Time(probe)  user:        4.8  user+sys:        4.8  wallclock:        1.1
  
  start of program grid
  
   grid     grid set  grid #  grid sym
  ------    --------  ------  --------
  coarse        0        0        1
  medium        2        1        1
  fine          0        0        1
  ultrafine     4        2        1
  charge       -1        3        1
  gradient      4        2        1
  density       0        0        1
  DFT-fine    -11        4        1
  DFT-med.    -10        5        1
  DFT-grad    -12        6        1
  DFT-der2      0        0        1
  DFT-cphf      0        0        1
  LMP2-enrg     4        2        1
  LMP2-grad     2        1        1
  DFT-cphf2     0        0        1
  PBF-dens      0        0        1
  plotting      0        0        1
  Rel-grad    -17        0        1
  
  number of gridpoints: 
     atom        C1       C2       C3       C4       C5       H6       C7
  grid # 1       78       94       88       87       90      108      100
  grid # 2      262      348      316      301      315      424      364
  grid # 3        6        6        6        6        6      669      105
  grid # 4     4304     4304     4304     4304     4304     4304     4304
  grid # 5     1192     1192     1192     1192     1192     1192     1192
  grid # 6     5226     5226     5226     5226     5226     5226     5226
   
  number of gridpoints: 
     atom        C8       C9      C10      C11      C12      C13      C14
  grid # 1       96       97       97       97       98       85       84
  grid # 2      337      333      352      336      362      284      287
  grid # 3      173      226      233      192      130        6        6
  grid # 4     4304     4304     4304     4304     4304     4304     4304
  grid # 5     1192     1192     1192     1192     1192     1192     1192
  grid # 6     5226     5226     5226     5226     5226     5226     5226
   
  number of gridpoints: 
     atom       C15      H16      C17      H18      C19      C20      C21
  grid # 1       88      107       93       97       87       81      100
  grid # 2      310      430      348      383      308      290      363
  grid # 3        6      776       13      200        6        7        6
  grid # 4     4304     4304     4304     4304     4304     4304     4304
  grid # 5     1192     1192     1192     1192     1192     1192     1192
  grid # 6     5226     5226     5226     5226     5226     5226     5226
   
  number of gridpoints: 
     atom       C22      C23      O24      O25      H26      H27      H28
  grid # 1      102       99      112      114      107      105      106
  grid # 2      410      385      425      427      428      423      428
  grid # 3      198      478      621      832      845      775      782
  grid # 4     4304     4304     4304     4304     4304     4304     4304
  grid # 5     1192     1192     1192     1192     1192     1192     1192
  grid # 6     5226     5226     5226     5226     5226     5226     5226
   
  number of gridpoints: 
     atom       H29      H30      H31      H32      H33      H34      H35
  grid # 1      112      107      107      108      112      116      115
  grid # 2      439      424      415      426      433      442      441
  grid # 3      840      653      472      695      796     1143     1022
  grid # 4     4304     4304     4304     4304     4304     4304     4304
  grid # 5     1192     1192     1192     1192     1192     1192     1192
  grid # 6     5226     5226     5226     5226     5226     5226     5226
   
  number of gridpoints: 
     atom       H36      H37      H38      H39      H40      H41      H42
  grid # 1      107      114       99      110      104      110      107
  grid # 2      426      445      386      434      415      426      423
  grid # 3      644     1070      116      754      536      667      608
  grid # 4     4304     4304     4304     4304     4304     4304     4304
  grid # 5     1192     1192     1192     1192     1192     1192     1192
  grid # 6     5226     5226     5226     5226     5226     5226     5226
   
  number of gridpoints: 
     atom       H43      H44      H45      H46    total
  grid # 1      109      117      110      113     4674
  grid # 2      436      455      438      448    17731
  grid # 3      952     1285      967     1271    21806
  grid # 4     4304     4304     4304     4304   197984
  grid # 5     1192     1192     1192     1192    54832
  grid # 6     5226     5226     5226     5226   240396
   
  Peak memory usage:   4790 Mb
  
  end of program grid
   
 Time(grid)  user:       31.7  user+sys:       31.7  wallclock:        2.8
  
  start of program rwr
  
  Peak memory usage:   4745 Mb
  
  end of program rwr
   
 Time(rwr)  user:       52.6  user+sys:       52.6  wallclock:        5.3
  
  start of program scf
  
 Energy computed with NOPS off.
  
       i  u  d  i  g                   
       t  p  i  c  r                                 RMS    maximum
       e  d  i  u  i                       energy  density   DIIS  
       r  t  s  t  d       total energy    change  change    error 
  
etot    1  N  N  2  U    -925.83649482585           1.8E-03  1.3E-02
etot    2  Y  Y  6  M    -925.88239605584  4.6E-02  7.0E-04  4.4E-03
etot    3  N  Y  2  U    -925.88024744827 -2.1E-03  4.3E-04  9.1E-03
etot    4  Y  Y  6  M    -925.88554500015  5.3E-03  1.1E-04  1.7E-03
etot    5  N  Y  2  U    -925.88579402306  2.5E-04  6.9E-05  1.0E-03
etot    6  Y  Y  6  M    -925.88587440755  8.0E-05  4.5E-05  4.5E-04
etot    7  N  Y  2  U    -925.88590961572  3.5E-05  4.6E-05  3.9E-04
etot    8  N  Y  2  U    -925.88592386704  1.4E-05  2.6E-05  3.2E-04
etot    9  N  Y  2  U    -925.88592893001  5.1E-06  1.7E-05  2.2E-04
etot   10  N  Y  2  U    -925.88593092081  2.0E-06  1.0E-05  1.1E-04
etot   11  N  Y  2  U    -925.88593165663  7.4E-07  8.5E-06  4.6E-05
etot   12  N  Y  2  U    -925.88593196644  3.1E-07  3.1E-06  2.6E-05
etot   13  N  N  2  U    -925.88593204562  7.9E-08  0.0E+00  0.0E+00
  
  
 Energy components, in hartrees:
   (A)  Nuclear repulsion............    1838.26642506401
   (E)  Total one-electron terms.....   -4886.24243101014
   (I)  Total two-electron terms.....    2122.09007390051
   (L)  Electronic energy............   -2764.15235710963  (E+I)
   (N)  Total energy.................    -925.88593204562  (A+L)
   (O)  Gas phase energy.............    -925.88593204562
  
                                 Total             Coulomb       Exchange+Corr.
 Total two-electron terms    2122.09007390051    2256.29842372256    -134.20834982205
   Hamiltonian  1........    1087.61367881422    1135.39624648704     -47.78256767282
   Hamiltonian  2........    1073.51401876869    1120.90217723552     -47.38815846683
  
 SCFE: SCF energy: UDFT(b3lyp)      -925.88593204562 hartrees   iterations:  13
  
 
 Alpha HOMO energy:    -0.31357
 Alpha LUMO energy:    -0.22204
 
  Alpha Orbital energies (hartrees): 
   -19.33024   -19.25712   -10.45714   -10.44325   -10.41353   -10.38141
   -10.36375   -10.35602   -10.35359   -10.34521   -10.34181   -10.33365
   -10.33070   -10.32367   -10.31013   -10.30108   -10.29707   -10.29323
   -10.29239   -10.28815   -10.28112   -10.27415    -1.21878    -1.15459
    -1.07234    -0.99717    -0.96718    -0.94473    -0.91471    -0.90085
    -0.87480    -0.86844    -0.84335    -0.84047    -0.81656    -0.77964
    -0.76487    -0.74734    -0.74534    -0.71316    -0.69687    -0.67801
    -0.66431    -0.66161    -0.64651    -0.63211    -0.62553    -0.62220
    -0.60423    -0.59854    -0.58878    -0.57553    -0.56845    -0.56513
    -0.56238    -0.55607    -0.54844    -0.53268    -0.52765    -0.52365
    -0.52095    -0.51507    -0.50320    -0.49769    -0.49088    -0.48330
    -0.47820    -0.46766    -0.45588    -0.45278    -0.44138    -0.43097
    -0.42945    -0.41382    -0.39807    -0.39510    -0.36105    -0.34315
    -0.34161    -0.31357    -0.22204    -0.18576    -0.12480    -0.10935
    -0.10314    -0.09454    -0.09125    -0.08479    -0.07864    -0.04500
 
 
 Beta HOMO energy:    -0.31358
 Beta LUMO energy:    -0.25489
 
  Beta Orbital energies (hartrees): 
   -19.32832   -19.25711   -10.45422   -10.44305   -10.40337   -10.38197
   -10.36296   -10.35433   -10.35192   -10.34494   -10.34180   -10.33305
   -10.33073   -10.32392   -10.30989   -10.30107   -10.29704   -10.29329
   -10.29242   -10.28811   -10.28111   -10.27416    -1.21433    -1.15456
    -1.06148    -0.99517    -0.96442    -0.94315    -0.91417    -0.89675
    -0.87336    -0.86732    -0.84200    -0.83944    -0.81269    -0.77694
    -0.76212    -0.74628    -0.74315    -0.71241    -0.69453    -0.67524
    -0.66242    -0.65446    -0.64321    -0.63097    -0.62280    -0.61589
    -0.60262    -0.59770    -0.58710    -0.57308    -0.56570    -0.56447
    -0.55910    -0.55393    -0.54560    -0.53058    -0.52629    -0.51991
    -0.51813    -0.51204    -0.50076    -0.49717    -0.49014    -0.48144
    -0.47621    -0.46107    -0.45307    -0.44997    -0.43934    -0.42937
    -0.42903    -0.41362    -0.39733    -0.39365    -0.34903    -0.34278
    -0.31358    -0.25489    -0.20212    -0.17248    -0.11966    -0.10607
    -0.10196    -0.09117    -0.08837    -0.08261    -0.07744
 
  
  
    Unrestricted Spin Properties ...
    Sz*(Sz+1)      0.750
    <S**2> ...     0.761
  
  
  Peak memory usage:   6749 Mb
  
  end of program scf
   
 Time(scf)  user:      311.0  user+sys:      311.0  wallclock:       21.5
  
  start of program der1a
  
  Peak memory usage:   4838 Mb
  
  end of program der1a
   
 Time(der1a)  user:        2.1  user+sys:        2.1  wallclock:        0.5
  
  start of program rwr
  
  Peak memory usage:   4745 Mb
  
  end of program rwr
   
 Time(rwr)  user:       41.8  user+sys:       41.8  wallclock:        5.6
  
  start of program der1b
  
   
  forces (hartrees/bohr) : total     
   
 atom  label           x              y              z
 ---- --------   -------------  -------------  -------------
    1 C1         -4.967619E-03   2.780083E-03  -2.179759E-02
    2 C2          8.980757E-02  -1.643435E-01  -3.987271E-02
    3 C3          3.607606E-02  -2.565043E-03   1.546042E-02
    4 C4         -2.329150E-02   9.943369E-03  -1.048133E-02
    5 C5         -1.971497E-03  -1.370498E-02   1.158784E-02
    6 H6          5.847440E-04  -1.064659E-03   2.539826E-03
    7 C7          1.586773E-03  -5.756806E-03  -8.063620E-04
    8 C8          3.915020E-03   5.871212E-04  -1.026405E-03
    9 C9         -6.647179E-03  -7.762955E-03   2.587685E-03
   10 C10         9.274559E-04   4.435569E-03  -1.193426E-03
   11 C11        -2.554166E-03   1.467250E-03   1.385743E-03
   12 C12         4.538582E-03  -3.732922E-03  -1.091937E-04
   13 C13         5.425580E-03   3.280124E-03   1.645152E-02
   14 C14         2.950674E-03  -2.987299E-04  -4.499998E-02
   15 C15         1.796051E-02   3.025286E-02   2.971860E-02
   16 H16        -1.420848E-02  -9.051856E-03  -5.111644E-03
   17 C17        -3.540622E-02   9.446630E-02   4.307273E-02
   18 H18        -6.414399E-03   2.141390E-02   2.308733E-02
   19 C19        -1.714572E-01  -5.337657E-02  -5.360771E-02
   20 C20         1.747344E-02  -8.493787E-03   2.440518E-02
   21 C21         9.967703E-02   1.112303E-01  -6.409734E-02
   22 C22        -1.997930E-02  -7.770567E-03   4.802721E-02
   23 C23        -6.976662E-03  -1.255069E-03   2.240880E-02
   24 O24         8.691052E-04  -1.544543E-02   1.125510E-02
   25 O25         5.649336E-03  -8.501886E-04  -4.725785E-04
   26 H26         2.407637E-03   2.182255E-03   3.134028E-03
   27 H27        -4.274252E-03   1.304281E-04   3.475199E-03
   28 H28         3.449975E-04   2.768295E-03   3.777183E-04
   29 H29        -6.687367E-04   8.398740E-03  -5.367544E-03
   30 H30         1.225158E-04   2.249041E-03   2.246938E-03
   31 H31        -1.179570E-02  -1.865414E-03  -7.106002E-03
   32 H32        -7.041507E-03  -2.989673E-03   8.218657E-03
   33 H33         1.694980E-03   1.371709E-04  -5.091202E-04
   34 H34         3.790569E-03  -2.281055E-04  -1.534671E-04
   35 H35         1.175667E-03  -1.611361E-03   3.249500E-03
   36 H36         1.166003E-03   1.449545E-03   8.226095E-03
   37 H37         6.425577E-03  -2.138623E-03   5.718730E-03
   38 H38        -1.023506E-02   2.804646E-03  -3.996042E-02
   39 H39         2.162495E-03  -4.884558E-03   1.402959E-02
   40 H40         8.218907E-03  -1.170926E-03  -1.106378E-02
   41 H41         2.635189E-02   1.383944E-02   3.110293E-02
   42 H42         8.831019E-04  -8.955155E-03  -4.628538E-03
   43 H43        -5.922089E-03  -7.544378E-03  -7.681162E-03
   44 H44        -2.986778E-03   6.082728E-03  -1.509900E-02
   45 H45        -1.346822E-02   9.383860E-03   4.256506E-03
   46 H46         8.574172E-03  -1.858672E-03  -4.632335E-04
 -------------   -------------  -------------  -------------
     total        4.937689E-04   5.631048E-04   4.153296E-04
   
  Peak memory usage:   6742 Mb
  
  end of program der1b
   
 Time(der1b)  user:       62.7  user+sys:       62.7  wallclock:        4.4
  
  start of program geopt
  
 ----------------------------------------------------------------------------
  Geometry optimization step  3
  Total energy:      -925.88593204562 hartrees
 ----------------------------------------------------------------------------
  
  
  Level shifts adjusted to satisfy step-size constraints
   Step size:    0.3003508
   Cos(theta):   0.9396044
   Final level shift:  -1.1232648E+00
  
  energy change:          -9.8514E-02 .  (  5.0000E-05 )
  gradient maximum:        1.6302E-01 .  (  4.5000E-04 )
  gradient rms:            3.4158E-02 .  (  3.0000E-04 )
  displacement maximum:    1.4530E-01 .  (  1.8000E-03 )
  displacement rms:        2.4943E-02 .  (  1.2000E-03 )
  
  predicted energy change:  -1.0870E-01
  step size:     0.30035
  trust radius:  0.30000
  
  molecular structure not yet converged...
  
  center of mass moved by:
     x:     2.0506E-02     y:     5.2008E-03     z:     3.6226E-03
  
  new geometry: 
                                   angstroms
  atom               x                 y                 z
  C1            0.7220085602     -0.5345683926     -0.0688937338 
  C2            2.1770439220     -0.5363852914     -0.4208084359 
  C3            2.8642595458     -2.1243706642      0.2651105039 
  C4            4.5640453562     -2.0740541436      0.2891177275 
  C5            5.1571961892     -1.0345280654      1.3106698573 
  H6            4.8723211866     -1.3967333953      2.3073001573 
  C7            6.6714711280     -0.9208041267      1.2751194621 
  C8            7.3675211558     -2.1127043677      1.5462493793 
  C9            8.7548469376     -2.1709764007      1.4937033876 
  C10           9.4698961966     -1.0240502157      1.1467989966 
  C11           8.8054707195      0.1720949564      0.8930543530 
  C12           7.4107762948      0.2556923761      1.0099594534 
  C13           6.7836939942      1.6210753903      0.8496245172 
  C14           5.2876186240      1.5166389328      0.6169021308 
  C15           4.4604589762      0.3281300747      1.1173735740 
  H16           4.0971337910      0.6572085346      2.1134972730 
  C17           3.4030232795      0.0269383332      0.0235704138 
  H18           2.8698846546     -0.1731696933      1.0250639338 
  C19           2.8177021679     -0.7032494910     -2.1046435602 
  C20           2.0298121833      0.6124560789     -2.5148673341 
  C21           2.8279713098      1.5096585902     -1.5559507727 
  C22           4.2159691109      1.6822829274     -2.3804724639 
  C23           5.3180934291      1.5215289656     -2.8824257412 
  O24           2.4504231653      2.8166339377     -1.2332145404 
  O25          10.8445559415     -1.0180280543      1.0510126453 
  H26           0.5361390280     -1.1108849618      0.8401982380 
  H27           0.2012675184     -1.0564779069     -0.8803891297 
  H28           0.2837423694      0.4621787289      0.0267726316 
  H29           2.5253578623     -2.9776824198     -0.3329871324 
  H30           2.5179952735     -2.2847031416      1.2962385876 
  H31           4.9901888229     -1.7961809112     -0.6845124957 
  H32           4.9519964846     -3.0772579324      0.4766943031 
  H33           6.8109375473     -3.0050535233      1.8194340961 
  H34           9.2530210991     -3.1064926592      1.7224416933 
  H35           9.3776179000      1.0500173245      0.6101833728 
  H36           7.1840122398      2.0914370336     -0.0658941175 
  H37           7.0291391603      2.2852329328      1.6823751344 
  H38           5.3732308519      1.2571980643     -0.4132364635 
  H39           4.7222700539      2.4571415359      0.5974055416 
  H40           2.1353752417     -1.5773564427     -2.2622097602 
  H41           3.6074941486     -0.9821875340     -2.8043553932 
  H42           0.9586020966      0.6181957814     -2.3073539991 
  H43           2.2763863311      1.0837950206     -3.4645595493 
  H44           6.3626639320      1.2857108302     -2.9322720465 
  H45           1.5967069304      2.7924492186     -0.7612366139 
  H46          11.1955555626     -1.8926196740      1.3003060883 
   
  nuclear repulsion energy.......    1829.274738347 hartrees
  -------------------------------------------------
 /  end of geometry optimization iteration   3   /
 -------------------------------------------------
   
  Peak memory usage:   4727 Mb
  
  end of program geopt
   
 Time(geopt)  user:        7.4  user+sys:        7.4  wallclock:        0.6
  
  start of program onee
  
  smallest eigenvalue of S:    5.239E-04
  number of canonical orbitals.....          246
  Peak memory usage:   4838 Mb
  
  end of program onee
   
 Time(onee)  user:        2.2  user+sys:        2.2  wallclock:        0.5
  
  start of program probe
  
  Peak memory usage:   4756 Mb
  
  end of program probe
   
 Time(probe)  user:        1.8  user+sys:        1.8  wallclock:        0.4
  
  start of program grid
  
   grid     grid set  grid #  grid sym
  ------    --------  ------  --------
  coarse        0        0        1
  medium        2        1        1
  fine          0        0        1
  ultrafine     4        2        1
  charge       -1        3        1
  gradient      4        2        1
  density       0        0        1
  DFT-fine    -11        4        1
  DFT-med.    -10        5        1
  DFT-grad    -12        6        1
  DFT-der2      0        0        1
  DFT-cphf      0        0        1
  LMP2-enrg     4        2        1
  LMP2-grad     2        1        1
  DFT-cphf2     0        0        1
  PBF-dens      0        0        1
  plotting      0        0        1
  Rel-grad    -17        0        1
  
  number of gridpoints: 
     atom        C1       C2       C3       C4       C5       H6       C7
  grid # 1       78       97       87       87       91      106      100
  grid # 2      263      347      314      300      315      430      361
  grid # 3        6        6        6        6        6      665      104
  grid # 4     4304     4304     4304     4304     4304     4304     4304
  grid # 5     1192     1192     1192     1192     1192     1192     1192
  grid # 6     5226     5226     5226     5226     5226     5226     5226
   
  number of gridpoints: 
     atom        C8       C9      C10      C11      C12      C13      C14
  grid # 1       96       97       96       97      100       85       88
  grid # 2      338      333      349      336      365      285      291
  grid # 3      175      228      241      192      130        6        6
  grid # 4     4304     4304     4304     4304     4304     4304     4304
  grid # 5     1192     1192     1192     1192     1192     1192     1192
  grid # 6     5226     5226     5226     5226     5226     5226     5226
   
  number of gridpoints: 
     atom       C15      H16      C17      H18      C19      C20      C21
  grid # 1       88      107       92       97       86       82       97
  grid # 2      313      428      353      391      309      293      362
  grid # 3        6      777       11      219        6        7        7
  grid # 4     4304     4304     4304     4304     4304     4304     4304
  grid # 5     1192     1192     1192     1192     1192     1192     1192
  grid # 6     5226     5226     5226     5226     5226     5226     5226
   
  number of gridpoints: 
     atom       C22      C23      O24      O25      H26      H27      H28
  grid # 1      102       99      112      114      107      105      106
  grid # 2      404      384      426      428      426      423      430
  grid # 3      193      476      604      826      840      768      777
  grid # 4     4304     4304     4304     4304     4304     4304     4304
  grid # 5     1192     1192     1192     1192     1192     1192     1192
  grid # 6     5226     5226     5226     5226     5226     5226     5226
   
  number of gridpoints: 
     atom       H29      H30      H31      H32      H33      H34      H35
  grid # 1      111      107      107      109      112      116      115
  grid # 2      436      426      420      426      434      442      441
  grid # 3      824      663      502      681      805     1145     1017
  grid # 4     4304     4304     4304     4304     4304     4304     4304
  grid # 5     1192     1192     1192     1192     1192     1192     1192
  grid # 6     5226     5226     5226     5226     5226     5226     5226
   
  number of gridpoints: 
     atom       H36      H37      H38      H39      H40      H41      H42
  grid # 1      106      113       99      110      106      110      108
  grid # 2      426      445      387      433      422      431      422
  grid # 3      615     1063      111      709      598      709      607
  grid # 4     4304     4304     4304     4304     4304     4304     4304
  grid # 5     1192     1192     1192     1192     1192     1192     1192
  grid # 6     5226     5226     5226     5226     5226     5226     5226
   
  number of gridpoints: 
     atom       H43      H44      H45      H46    total
  grid # 1      109      117      110      113     4677
  grid # 2      436      455      443      449    17771
  grid # 3      949     1280     1038     1279    21889
  grid # 4     4304     4304     4304     4304   197984
  grid # 5     1192     1192     1192     1192    54832
  grid # 6     5226     5226     5226     5226   240396
   
  Peak memory usage:   4790 Mb
  
  end of program grid
   
 Time(grid)  user:       33.3  user+sys:       33.3  wallclock:        2.7
  
  start of program rwr
  
  Peak memory usage:   4745 Mb
  
  end of program rwr
   
 Time(rwr)  user:       56.1  user+sys:       56.1  wallclock:        5.5
  
  start of program scf
  
 Energy computed with NOPS off.
  
       i  u  d  i  g                   
       t  p  i  c  r                                 RMS    maximum
       e  d  i  u  i                       energy  density   DIIS  
       r  t  s  t  d       total energy    change  change    error 
  
etot    1  N  N  2  U    -925.96184979676           1.2E-03  7.3E-03
etot    2  Y  Y  6  M    -925.98265077726  2.1E-02  4.0E-04  4.1E-03
etot    3  N  Y  2  U    -925.98232692676 -3.2E-04  2.2E-04  5.5E-03
etot    4  Y  Y  6  M    -925.98396944844  1.6E-03  7.8E-05  2.2E-03
etot    5  Y  Y  6  M    -925.98405693610  8.7E-05  6.0E-05  1.1E-03
etot    6  Y  Y  6  M    -925.98411461552  5.8E-05  4.6E-05  7.7E-04
etot    7  N  Y  2  U    -925.98416423202  5.0E-05  4.4E-05  4.5E-04
etot    8  N  Y  2  U    -925.98417931707  1.5E-05  2.7E-05  2.1E-04
etot    9  N  Y  2  U    -925.98418494425  5.6E-06  1.9E-05  1.7E-04
etot   10  N  Y  2  U    -925.98418742596  2.5E-06  8.6E-06  6.2E-05
etot   11  N  Y  2  U    -925.98418796238  5.4E-07  5.1E-06  4.4E-05
etot   12  N  Y  2  U    -925.98418807891  1.2E-07  1.5E-06  1.4E-05
etot   13  N  N  2  U    -925.98418810878  3.0E-08  0.0E+00  0.0E+00
  
  
 Energy components, in hartrees:
   (A)  Nuclear repulsion............    1829.27473834735
   (E)  Total one-electron terms.....   -4868.72000825640
   (I)  Total two-electron terms.....    2113.46108180027
   (L)  Electronic energy............   -2755.25892645614  (E+I)
   (N)  Total energy.................    -925.98418810878  (A+L)
   (O)  Gas phase energy.............    -925.98418810878
  
                                 Total             Coulomb       Exchange+Corr.
 Total two-electron terms    2113.46108180027    2247.61334588084    -134.15226408057
   Hamiltonian  1........    1083.18492039200    1130.94814966660     -47.76322927460
   Hamiltonian  2........    1069.29813220426    1116.66519621424     -47.36706400998
  
 SCFE: SCF energy: UDFT(b3lyp)      -925.98418810878 hartrees   iterations:  13
  
 
 Alpha HOMO energy:    -0.31306
 Alpha LUMO energy:    -0.21534
 
  Alpha Orbital energies (hartrees): 
   -19.33496   -19.25630   -10.45462   -10.43650   -10.41188   -10.37909
   -10.36345   -10.35682   -10.34858   -10.34525   -10.34155   -10.33408
   -10.33120   -10.32374   -10.31257   -10.30008   -10.29675   -10.29185
   -10.29100   -10.28799   -10.28101   -10.27357    -1.21955    -1.15068
    -1.05740    -0.98679    -0.95759    -0.93877    -0.91028    -0.89541
    -0.87506    -0.86992    -0.84157    -0.83706    -0.81711    -0.77800
    -0.76393    -0.74503    -0.74288    -0.71009    -0.69061    -0.67215
    -0.65935    -0.65526    -0.64569    -0.63073    -0.62199    -0.61982
    -0.60125    -0.59523    -0.58740    -0.57206    -0.56643    -0.56298
    -0.55698    -0.55537    -0.54479    -0.53810    -0.52922    -0.52161
    -0.51833    -0.51292    -0.50204    -0.49608    -0.48785    -0.48307
    -0.47939    -0.46957    -0.46228    -0.45088    -0.44349    -0.43381
    -0.42764    -0.41319    -0.40320    -0.39907    -0.37276    -0.34399
    -0.34193    -0.31306    -0.21534    -0.16060    -0.12114    -0.10395
    -0.09928    -0.09248    -0.09026    -0.08302    -0.07581    -0.04520
 
 
 Beta HOMO energy:    -0.31305
 Beta LUMO energy:    -0.26096
 
  Beta Orbital energies (hartrees): 
   -19.33213   -19.25629   -10.45011   -10.43625   -10.40376   -10.37950
   -10.36198   -10.35622   -10.34743   -10.34492   -10.34154   -10.33341
   -10.33119   -10.32420   -10.31188   -10.30008   -10.29671   -10.29192
   -10.29116   -10.28794   -10.28099   -10.27358    -1.21295    -1.15065
    -1.04792    -0.98528    -0.95511    -0.93628    -0.90979    -0.89170
    -0.87402    -0.86826    -0.84010    -0.83634    -0.81257    -0.77553
    -0.76078    -0.74420    -0.74105    -0.70965    -0.68878    -0.66961
    -0.65720    -0.64932    -0.64088    -0.62930    -0.62019    -0.61357
    -0.59989    -0.59335    -0.58503    -0.56988    -0.56420    -0.56249
    -0.55563    -0.55242    -0.53818    -0.53466    -0.52803    -0.51908
    -0.51487    -0.51038    -0.49968    -0.49555    -0.48724    -0.48154
    -0.47858    -0.46328    -0.45727    -0.44926    -0.44161    -0.43189
    -0.42751    -0.41287    -0.40200    -0.39557    -0.36128    -0.34185
    -0.31305    -0.26096    -0.18787    -0.15194    -0.11621    -0.10346
    -0.09643    -0.09010    -0.08657    -0.07861    -0.07511
 
  
  
    Unrestricted Spin Properties ...
    Sz*(Sz+1)      0.750
    <S**2> ...     0.768
  
  
  Peak memory usage:   6749 Mb
  
  end of program scf
   
 Time(scf)  user:      321.1  user+sys:      321.1  wallclock:       22.4
  
  start of program der1a
  
  Peak memory usage:   4838 Mb
  
  end of program der1a
   
 Time(der1a)  user:        2.4  user+sys:        2.4  wallclock:        0.5
  
  start of program rwr
  
  Peak memory usage:   4745 Mb
  
  end of program rwr
   
 Time(rwr)  user:       42.6  user+sys:       42.6  wallclock:        5.8
  
  start of program der1b
  
   
  forces (hartrees/bohr) : total     
   
 atom  label           x              y              z
 ---- --------   -------------  -------------  -------------
    1 C1         -4.632543E-03   5.513696E-03  -1.344986E-02
    2 C2          1.034218E-01  -1.343805E-01  -5.207848E-02
    3 C3          4.130788E-02  -1.262468E-03  -4.925296E-03
    4 C4         -2.137993E-02   3.879626E-03  -5.990092E-03
    5 C5         -2.370841E-03  -1.046221E-02   7.986022E-03
    6 H6         -5.208532E-04   4.353905E-04   1.731396E-03
    7 C7          1.229655E-03  -6.490666E-03  -9.767773E-05
    8 C8          3.205807E-03   1.277864E-03  -1.020674E-03
    9 C9         -5.670076E-03  -5.528230E-03   2.343835E-03
   10 C10         1.632848E-03   3.496289E-03  -1.510077E-03
   11 C11        -2.433825E-03   1.219307E-03   1.748271E-03
   12 C12         3.976269E-03  -3.176670E-03  -1.369104E-03
   13 C13         2.008923E-04   2.741462E-03   1.439078E-02
   14 C14         4.721298E-03  -6.625574E-03  -3.978956E-02
   15 C15         3.071545E-02   2.462007E-02   1.851081E-02
   16 H16        -1.066092E-02  -7.093898E-03  -7.222147E-03
   17 C17        -5.571890E-02   8.544163E-02   5.937944E-02
   18 H18        -8.016169E-03   2.515237E-02   1.575966E-02
   19 C19        -1.572801E-01  -3.128750E-02  -2.700561E-02
   20 C20         2.699627E-02  -7.014222E-03   2.923850E-02
   21 C21         8.763779E-02   6.711431E-02  -6.229696E-02
   22 C22        -3.590158E-02  -1.343436E-02   4.467390E-02
   23 C23        -1.019593E-03  -2.489831E-03   1.630853E-02
   24 O24        -4.136593E-03  -1.918931E-02   1.234892E-02
   25 O25         2.100211E-03  -1.142700E-03  -1.858142E-05
   26 H26         1.038776E-03   3.593345E-03   2.901407E-03
   27 H27        -2.217290E-03   5.439273E-04   1.490041E-03
   28 H28         1.502590E-05   1.358945E-03   8.927031E-04
   29 H29         4.459962E-04   6.319497E-03  -5.613645E-03
   30 H30        -3.057470E-03   8.061036E-03  -7.001449E-04
   31 H31        -1.001830E-02  -2.028089E-03  -4.473599E-03
   32 H32        -5.543600E-03  -2.440830E-03   5.568911E-03
   33 H33         9.896388E-04  -6.689437E-05  -6.803638E-04
   34 H34         2.824433E-03  -2.309823E-05  -2.338758E-04
   35 H35         1.289021E-03  -1.100844E-03   2.833953E-03
   36 H36         2.383033E-03   2.007324E-03   7.156660E-03
   37 H37         4.672119E-03  -1.854770E-03   4.312330E-03
   38 H38        -1.120159E-02   2.063600E-03  -2.256822E-02
   39 H39         3.448519E-03  -2.483851E-03   1.178186E-02
   40 H40         1.352222E-03   5.912574E-03  -1.466557E-02
   41 H41         2.863776E-02   1.131676E-02   3.089915E-02
   42 H42         3.492982E-04  -6.135828E-03  -4.363284E-03
   43 H43        -7.532487E-03  -9.725300E-03  -9.633990E-03
   44 H44        -2.292549E-03   5.804211E-03  -1.414370E-02
   45 H45        -8.759674E-03   8.707805E-03   2.187665E-03
   46 H46         6.387195E-03  -6.323915E-04  -7.183024E-04
 -------------   -------------  -------------  -------------
     total        6.143074E-04   5.110567E-04  -1.240593E-04
   
  Peak memory usage:   6742 Mb
  
  end of program der1b
   
 Time(der1b)  user:       64.1  user+sys:       64.1  wallclock:        4.5
  
  start of program geopt
  
 ----------------------------------------------------------------------------
  Geometry optimization step  4
  Total energy:      -925.98418810878 hartrees
 ----------------------------------------------------------------------------
  
  
  Level shifts adjusted to satisfy step-size constraints
   Step size:    0.3001837
   Cos(theta):   0.8711450
   Final level shift:  -8.2490474E-01
  
  energy change:          -9.8256E-02 .  (  5.0000E-05 )
  gradient maximum:        1.3639E-01 .  (  4.5000E-04 )
  gradient rms:            2.8905E-02 .  (  3.0000E-04 )
  displacement maximum:    1.3196E-01 .  (  1.8000E-03 )
  displacement rms:        2.4929E-02 .  (  1.2000E-03 )
  
  predicted energy change:  -8.2677E-02
  step size:     0.30018
  trust radius:  0.30000
  
  molecular structure not yet converged...
  
  center of mass moved by:
     x:     1.5719E-02     y:    -1.0548E-02     z:     5.3602E-03
  
  new geometry: 
                                   angstroms
  atom               x                 y                 z
  C1            0.7422564616     -0.6089077981     -0.1177265665 
  C2            2.2035749235     -0.6135148292     -0.4492298189 
  C3            2.9607852209     -2.0881281946      0.1743736188 
  C4            4.6343077601     -2.0527649185      0.2729759223 
  C5            5.1923025546     -1.0146938783      1.3163677116 
  H6            4.8645955948     -1.3711368271      2.3026629532 
  C7            6.7112825630     -0.9237556864      1.3187834214 
  C8            7.3941935135     -2.1227252646      1.6048265617 
  C9            8.7832109655     -2.1917756000      1.5945101007 
  C10           9.5176691530     -1.0446165884      1.2805296574 
  C11           8.8640351786      0.1565857645      1.0158943255 
  C12           7.4649608309      0.2473190996      1.0856493616 
  C13           6.8447123488      1.6155529908      0.9116104759 
  C14           5.3480392700      1.5341859704      0.6114075191 
  C15           4.4871841419      0.3579406128      1.1008539677 
  H16           4.0716454903      0.6718766337      2.0779725360 
  C17           3.4223499520      0.0104854581      0.0098505687 
  H18           2.8512488272     -0.0809056872      1.0144158770 
  C19           2.5815001551     -0.6997476587     -2.2018986115 
  C20           1.8389640311      0.6684661914     -2.4646905317 
  C21           2.8090167219      1.5458614727     -1.6223374818 
  C22           4.0775770947      1.6779834771     -2.5700709018 
  C23           5.1084238142      1.5195364856     -3.2020966543 
  O24           2.5119563631      2.8491274183     -1.2197832538 
  O25          10.8986244529     -1.0402695145      1.2220951049 
  H26           0.5503255265     -1.1341720413      0.8211384449 
  H27           0.2348073200     -1.1811900957     -0.9030206762 
  H28           0.2927772406      0.3874469917     -0.0832152074 
  H29           2.6398537447     -2.9397074784     -0.4336219546 
  H30           2.5595857789     -2.2222372120      1.1888036343 
  H31           5.0796902923     -1.7938686102     -0.6964795763 
  H32           4.9897997135     -3.0594971058      0.5047086187 
  H33           6.8272397140     -3.0128850801      1.8621723800 
  H34           9.2721768630     -3.1306246738      1.8323893813 
  H35           9.4506574351      1.0338238479      0.7641894708 
  H36           7.2829814578      2.0976064353      0.0226598121 
  H37           7.0616398631      2.2622960725      1.7678351936 
  H38           5.4427663388      1.3217035392     -0.4392313383 
  H39           4.7951538834      2.4794360697      0.6391634843 
  H40           1.8708521362     -1.5514589846     -2.3352362023 
  H41           3.3147896793     -0.9648380194     -2.9642887383 
[...]
  DFT-cphf2     0        0        1
  PBF-dens      0        0        1
  plotting      0        0        1
  Rel-grad    -17        0        1
  
  number of gridpoints: 
     atom        C1       C2       C3       C4       C5       H6       C7
  grid # 1       79       98       86       86       91      107       99
  grid # 2      269      347      294      296      321      425      361
  grid # 3        6        6        6        6        6      603       43
  grid # 4     4304     4304     4304     4304     4304     4304     4304
  grid # 5     1192     1192     1192     1192     1192     1192     1192
  grid # 6     5226     5226     5226     5226     5226     5226     5226
   
  number of gridpoints: 
     atom        C8       C9      C10      C11      C12      C13      C14
  grid # 1       96       96       98       95       98       85       86
  grid # 2      334      334      357      337      354      289      295
  grid # 3      107      164      213      202       91        6        6
  grid # 4     4304     4304     4304     4304     4304     4304     4304
  grid # 5     1192     1192     1192     1192     1192     1192     1192
  grid # 6     5226     5226     5226     5226     5226     5226     5226
   
  number of gridpoints: 
     atom       C15      H16      C17      H18      C19      C20      C21
  grid # 1       91      105       91      105       86       84       96
  grid # 2      318      418      324      411      290      289      340
  grid # 3        6      422        6      352        6        6        6
  grid # 4     4304     4304     4304     4304     4304     4304     4304
  grid # 5     1192     1192     1192     1192     1192     1192     1192
  grid # 6     5226     5226     5226     5226     5226     5226     5226
   
  number of gridpoints: 
     atom       C22      C23      O24      O25      H26      H27      H28
  grid # 1      101       99      112      112      108      109      108
  grid # 2      391      378      419      424      431      435      429
  grid # 3       84      320      436      757      783      884      750
  grid # 4     4304     4304     4304     4304     4304     4304     4304
  grid # 5     1192     1192     1192     1192     1192     1192     1192
  grid # 6     5226     5226     5226     5226     5226     5226     5226
   
  number of gridpoints: 
     atom       H29      H30      H31      H32      H33      H34      H35
  grid # 1      108      106      101      108      111      117      116
  grid # 2      429      425      410      431      426      443      441
  grid # 3      752      607      252      760      658     1086     1098
  grid # 4     4304     4304     4304     4304     4304     4304     4304
  grid # 5     1192     1192     1192     1192     1192     1192     1192
  grid # 6     5226     5226     5226     5226     5226     5226     5226
   
  number of gridpoints: 
     atom       H36      H37      H38      H39      H40      H41      H42
  grid # 1      109      109      106      110      111      105      105
  grid # 2      436      439      417      433      432      423      426
  grid # 3      844      874      442      834      819      552      582
  grid # 4     4304     4304     4304     4304     4304     4304     4304
  grid # 5     1192     1192     1192     1192     1192     1192     1192
  grid # 6     5226     5226     5226     5226     5226     5226     5226
   
  number of gridpoints: 
     atom       H43      H44      H45      H46    total
  grid # 1      112      118      110      114     4683
  grid # 2      443      455      440      450    17709
  grid # 3      998     1365     1057     1336    21199
  grid # 4     4304     4304     4304     4304   197984
  grid # 5     1192     1192     1192     1192    54832
  grid # 6     5226     5226     5226     5226   240396
   
  Peak memory usage:   4790 Mb
  
  end of program grid
   
 Time(grid)  user:       35.4  user+sys:       35.4  wallclock:        3.7
  
  start of program rwr
  
  Peak memory usage:   4745 Mb
  
  end of program rwr
   
 Time(rwr)  user:       62.3  user+sys:       62.3  wallclock:        6.0
  
  start of program scf
  
 Energy computed with NOPS off.
  
       i  u  d  i  g                   
       t  p  i  c  r                                 RMS    maximum
       e  d  i  u  i                       energy  density   DIIS  
       r  t  s  t  d       total energy    change  change    error 
  
etot    1  N  N  2  U    -926.44099063216           1.9E-05  2.4E-04
etot    2  N  Y  2  U    -926.44099582501  5.2E-06  6.5E-06  4.6E-05
etot    3  N  Y  2  U    -926.44099526011 -5.6E-07  4.2E-06  1.1E-04
etot    4  N  N  2  U    -926.44099597818  7.2E-07  0.0E+00  0.0E+00
  
  
 Energy components, in hartrees:
   (A)  Nuclear repulsion............    1900.64626378258
   (E)  Total one-electron terms.....   -5012.59444220237
   (I)  Total two-electron terms.....    2185.50718244161
   (L)  Electronic energy............   -2827.08725976076  (E+I)
   (N)  Total energy.................    -926.44099597818  (A+L)
   (O)  Gas phase energy.............    -926.44099597818
  
                                 Total             Coulomb       Exchange+Corr.
 Total two-electron terms    2185.50718244161    2319.93824069471    -134.43105825310
   Hamiltonian  1........    1118.96399192107    1166.83403762324     -47.87004570218
   Hamiltonian  2........    1105.63505388315    1153.10420307146     -47.46914918831
  
 SCFE: SCF energy: UDFT(b3lyp)      -926.44099597818 hartrees   iterations:   4
  
 
 Alpha HOMO energy:    -0.36353
 Alpha LUMO energy:    -0.17832
 
  Alpha Orbital energies (hartrees): 
   -19.36874   -19.24676   -10.44997   -10.38762   -10.37562   -10.36703
   -10.36575   -10.36416   -10.35320   -10.33422   -10.31688   -10.31438
   -10.31434   -10.30765   -10.30084   -10.30045   -10.29903   -10.29248
   -10.29160   -10.28360   -10.27905   -10.26425    -1.26304    -1.12799
    -1.04018    -0.98025    -0.95436    -0.94113    -0.90602    -0.89728
    -0.88593    -0.85976    -0.84319    -0.81855    -0.79274    -0.78677
    -0.76721    -0.75526    -0.72774    -0.72642    -0.70119    -0.68129
    -0.65608    -0.65014    -0.63650    -0.63048    -0.61323    -0.60809
    -0.60679    -0.59785    -0.59279    -0.57933    -0.56726    -0.55762
    -0.55125    -0.54016    -0.53349    -0.53108    -0.52149    -0.51760
    -0.51069    -0.50268    -0.50013    -0.48738    -0.48438    -0.47369
    -0.46642    -0.46214    -0.45829    -0.44722    -0.43688    -0.42817
    -0.42117    -0.41657    -0.41026    -0.40691    -0.40132    -0.39714
    -0.38034    -0.36353    -0.17832    -0.16566    -0.09097    -0.08585
    -0.07262    -0.04633    -0.03945    -0.02866    -0.02207    -0.01709
 
 
 Beta HOMO energy:    -0.36264
 Beta LUMO energy:    -0.31849
 
  Beta Orbital energies (hartrees): 
   -19.36423   -19.24676   -10.44668   -10.38223   -10.37563   -10.36610
   -10.36543   -10.36370   -10.35276   -10.33428   -10.31640   -10.31441
   -10.31359   -10.30690   -10.30084   -10.30021   -10.29897   -10.29248
   -10.29156   -10.28360   -10.27905   -10.26422    -1.25331    -1.12796
    -1.03272    -0.97800    -0.95168    -0.93758    -0.90332    -0.89330
    -0.88324    -0.85785    -0.84170    -0.81668    -0.78923    -0.78510
    -0.76438    -0.75436    -0.72641    -0.72573    -0.69877    -0.67989
    -0.65305    -0.64940    -0.63524    -0.62686    -0.61079    -0.60715
    -0.60434    -0.59212    -0.57838    -0.57623    -0.56451    -0.55679
    -0.54811    -0.53786    -0.53082    -0.52771    -0.51975    -0.51652
    -0.50825    -0.50006    -0.49528    -0.48368    -0.47701    -0.47313
    -0.46471    -0.46051    -0.45697    -0.44317    -0.43604    -0.42754
    -0.42040    -0.41193    -0.40864    -0.40561    -0.39627    -0.38716
    -0.36264    -0.31849    -0.15537    -0.14848    -0.08921    -0.08477
    -0.06847    -0.04471    -0.03810    -0.02590    -0.01741
 
  
  
    Unrestricted Spin Properties ...
    Sz*(Sz+1)      0.750
    <S**2> ...     0.757
  
  
  Peak memory usage:   6749 Mb
  
  end of program scf
   
 Time(scf)  user:      129.0  user+sys:      129.0  wallclock:        8.9
  
  start of program der1a
  
  Peak memory usage:   4838 Mb
  
  end of program der1a
   
 Time(der1a)  user:        2.0  user+sys:        2.0  wallclock:        0.5
  
  start of program rwr
  
  Peak memory usage:   4748 Mb
  
  end of program rwr
   
 Time(rwr)  user:       54.2  user+sys:       54.2  wallclock:        6.9
  
  start of program der1b
  
   
  forces (hartrees/bohr) : total     
   
 atom  label           x              y              z
 ---- --------   -------------  -------------  -------------
    1 C1          5.399600E-06  -1.645713E-05   7.660222E-06
    2 C2         -3.253802E-05  -5.759787E-06   7.002717E-06
    3 C3         -1.841434E-06  -2.185983E-05  -8.534572E-06
    4 C4          7.551500E-06   1.167314E-06  -2.472753E-05
    5 C5         -1.422649E-05   5.926104E-07   1.520379E-05
    6 H6         -3.233831E-06  -1.935778E-05  -1.209584E-05
    7 C7          1.896887E-06  -2.482748E-06   3.459181E-07
    8 C8         -4.220161E-05   4.860291E-05  -4.587878E-05
    9 C9         -8.129974E-06   1.234931E-05  -4.815551E-07
   10 C10         9.920493E-06   3.645256E-05  -4.514283E-05
   11 C11        -2.231425E-05  -5.244265E-07   3.042898E-05
   12 C12        -4.109736E-05   3.596659E-05  -6.623563E-05
   13 C13        -2.544787E-05  -2.308792E-05   1.866968E-05
   14 C14        -2.209927E-05  -1.372084E-05   2.096342E-05
   15 C15        -1.140884E-05  -3.570077E-06   1.097141E-05
   16 H16        -5.933055E-06  -1.412156E-05   1.950367E-05
   17 C17        -4.147077E-05  -5.622321E-06   1.708803E-05
   18 H18        -3.493302E-05  -1.135858E-05   3.474178E-05
   19 C19        -1.679953E-05   2.123516E-05  -8.809922E-06
   20 C20        -2.444507E-05   6.617494E-06  -1.898805E-05
   21 C21        -5.814036E-05   5.562278E-06   2.438114E-05
   22 C22         4.751015E-05   4.829300E-05   9.056479E-05
   23 C23        -1.121280E-04   4.162857E-05  -4.335964E-05
   24 O24         3.630907E-05   2.937892E-06  -7.696721E-05
   25 O25        -3.062972E-05   3.111670E-05  -2.018678E-06
   26 H26        -1.621111E-05  -3.164985E-05   1.258502E-05
   27 H27        -7.569447E-06  -2.526619E-05  -2.358760E-06
   28 H28        -2.668251E-05  -1.707931E-05   1.759598E-05
   29 H29        -4.273028E-06  -1.129530E-05  -1.810384E-05
   30 H30         8.758449E-07  -2.624169E-05  -1.040215E-05
   31 H31        -9.265525E-06   9.956628E-06  -1.504731E-05
   32 H32         2.871723E-06  -5.265790E-06  -3.337361E-05
   33 H33        -6.787028E-06   1.180163E-05  -2.335504E-05
   34 H34         5.430084E-06   2.995821E-05  -4.561070E-05
   35 H35        -1.412848E-05   2.421768E-05   8.882460E-06
   36 H36        -2.548337E-05   1.583848E-06   1.799636E-05
   37 H37        -1.460000E-05  -2.046918E-05   1.067450E-05
   38 H38        -3.316824E-05   1.957684E-06   2.818272E-05
   39 H39        -2.615859E-05  -9.036929E-06   3.178938E-05
   40 H40        -1.576775E-05   7.671359E-06  -3.504493E-06
   41 H41        -2.037777E-05   1.251888E-05  -1.490472E-05
   42 H42        -3.424706E-05   1.327787E-05   1.691515E-05
   43 H43        -3.602659E-05   3.666030E-05   8.882469E-06
   44 H44         1.211114E-05   3.648150E-05   1.083411E-05
   45 H45        -9.101029E-05   3.077860E-05   1.007681E-04
   46 H46        -1.324074E-05   4.311655E-05  -3.103615E-05
 -------------   -------------  -------------  -------------
     total       -8.141395E-04   2.682759E-04   1.169483E-05
   
  Peak memory usage:   6742 Mb
  
  end of program der1b
   
 Time(der1b)  user:       65.4  user+sys:       65.4  wallclock:        4.6
  
  start of program geopt
  
 ----------------------------------------------------------------------------
  Geometry optimization step 44
  Total energy:      -926.44099597818 hartrees
 ----------------------------------------------------------------------------
  
  energy change:          -1.0990E-05 *  (  5.0000E-05 )
  gradient maximum:        1.3572E-04 *  (  4.5000E-04 )
  gradient rms:            2.8093E-05 #  (  3.0000E-04 )
  displacement maximum:    8.5002E-03 .  (  1.8000E-03 )
  displacement rms:        7.5585E-04 *  (  1.2000E-03 )
  
  predicted energy change:  -8.1699E-07
  step size:     0.00929
  trust radius:  0.30000
  
  ********************************************************
  **           Geometry optimization complete           **
  ********************************************************
  
  Checking the geometry optimization convergence pattern ...
  
  WARNING:
  There were 44 geometry optimization steps,
  which indicates difficult convergence and can be
  symptomatic of potential problems with the initial
  and/or the final (converged) structures.
  
  WARNING:
  The energy on the last optimization iteration,
     -926.440995978183
  is higher than the energy on one of the previous iterations,
     -926.441014598751
  The difference between these two energies is 0.012 kcal/mole.
  This situation is symptomatic of potential problems with the
  initial and/or the converged structures.
  
  best                    worst
  ==0=====1=====2=====3=====4==
                      ^        
  
  Convergence category 3: convergence to a non-optimal structure.
  The difference between the final and the minimal
  energies is less than 0.100 kcal/mole.
  Geometry optimization was NOT OK.
  
  Number of imaginary frequencies:   0
  
  center of mass moved by:
     x:     0.0000E+00     y:     0.0000E+00     z:     0.0000E+00
  
  final geometry: 
                                   angstroms
  atom               x                 y                 z
  C1            0.7841234039     -0.3881113988      0.2567597808 
  C2            2.1936631619     -0.6936253065     -0.2991831989 
  C3            2.7603342918     -1.9479753102      0.4164871991 
  C4            4.2891876984     -2.0519304630      0.3005595244 
  C5            4.9776995830     -0.9079158747      1.0804590946 
  H6            4.9483366138     -1.2052656374      2.1492912774 
  C7            6.4469476439     -0.7389521879      0.8268275207 
  C8            7.2358919344     -1.7441817719      0.1739424795 
  C9            8.6083171229     -1.6578154604      0.1304806751 
  C10           9.2467379283     -0.5324959944      0.7295258958 
  C11           8.4925800343      0.4907591346      1.3599929150 
  C12           7.1176339358      0.3995998062      1.4223259851 
  C13           6.2612911812      1.4492658657      2.0787353648 
  C14           5.0173387447      1.7181955347      1.2081465229 
  C15           4.1384520564      0.4502100604      1.0571246331 
  H16           3.5113058849      0.3895341511      1.9560685964 
  C17           3.1323433974      0.5630861532     -0.1127639764 
  H18           2.4959430874      1.4202999283      0.1514467083 
  C19           2.1298855067     -0.8995319901     -1.8520902056 
  C20           2.5117324343      0.4570423217     -2.4644344464 
  C21           3.6501096368      0.9746159250     -1.5422347661 
  C22           4.9400286962      0.3944108624     -1.9332410917 
  C23           6.0065635452     -0.0421897687     -2.3227521698 
  O24           3.8530724221      2.4230314486     -1.6169883481 
  O25          10.5856017610     -0.3696968694      0.7339498978 
  H26           0.8310193409     -0.0948658453      1.3129876512 
  H27           0.1374729235     -1.2699719233      0.1824102842 
  H28           0.3041994950      0.4278691214     -0.2964785432 
  H29           2.2928882169     -2.8440741023     -0.0095538587 
  H30           2.4762027992     -1.9312396771      1.4784351168 
  H31           4.5773257289     -2.0081037720     -0.7560039322 
  H32           4.6241203022     -3.0225503606      0.6868338833 
  H33           6.7406532759     -2.5969246087     -0.2707743892 
  H34           9.2013303347     -2.4336209213     -0.3432543577 
  H35           9.0282867525      1.3278541883      1.7913936647 
  H36           6.8385029828      2.3657781810      2.2339312371 
  H37           5.9528261910      1.1013044245      3.0777216768 
  H38           5.3364814473      2.0868894909      0.2295327043 
  H39           4.4180516903      2.5188339766      1.6539827192 
  H40           1.1403667613     -1.2391407943     -2.1723997855 
  H41           2.8500937097     -1.6628311522     -2.1717978731 
  H42           1.6694575656      1.1597728576     -2.3870450018 
  H43           2.8150513767      0.4055645792     -3.5129167075 
  H44           6.9223192152     -0.3982254072     -2.7325472980 
  H45           3.0437042662      2.8609647622     -1.9506233494 
  H46          11.1013302267     -1.0827312580      0.3007306459 
   
  principal moments of inertia:
        amu*angstrom^2:      885.12566     2561.53957     2612.83878
                g*cm^2: 1.46978555E-37 4.25353600E-37 4.33872034E-37
   
  rotational constants:
               cm^(-1):      0.01904546      0.00658105      0.00645184
                   GHz:      0.57096865      0.19729502      0.19342143
   
  nuclear repulsion energy.......    1900.646263783 hartrees
  -------------------------------------------------
 /  end of geometry optimization iteration  44   /
 -------------------------------------------------
   
  Peak memory usage:   4822 Mb
  
  end of program geopt
   
 Time(geopt)  user:       12.9  user+sys:       12.9  wallclock:        1.1
  
  start of program ch
  
  Moments from quantum mechanical wavefunction:
  Dipole Moments  (Debye)
     X=     5.7053     Y=    -3.3129     Z=     1.1519  Tot=     6.6973
  
  gridpoints used for charge fit        20028
    out of a possible maximum of        21199
  
   Electrostatic potential fitting constrained to reproduce
     total charge:                yes
     dipole moment:               yes
     traceless quadrupole moment: no 
     traceless octapole moment:   no 
  
  Atomic charges from electrostatic potential: 
   
 Atom       C1           C2           C3           C4           C5      
 Charge   -0.42938      0.32974     -0.19820      0.05325     -0.20115
   
 Atom       H6           C7           C8           C9           C10     
 Charge    0.12500      0.08472      0.00349     -0.42163      0.67906
   
 Atom       C11          C12          C13          C14          C15     
 Charge   -0.39488      0.18169     -0.15652     -0.10722      0.21119
   
 Atom       H16          C17          H18          C19          C20     
 Charge    0.02803     -0.34986      0.12033     -0.12613     -0.15246
   
 Atom       C21          C22          C23          O24          O25     
 Charge    0.32861      0.12715     -0.38417     -0.69417     -0.59358
   
 Atom       H26          H27          H28          H29          H30     
 Charge    0.10915      0.11491      0.11990      0.06749      0.06239
   
 Atom       H31          H32          H33          H34          H35     
 Charge   -0.00107      0.03128      0.15233      0.20670      0.22095
   
 Atom       H36          H37          H38          H39          H40     
 Charge    0.10688      0.07501      0.08653      0.06842      0.07440
   
 Atom       H41          H42          H43          H44          H45     
 Charge    0.04214      0.06864      0.08854      0.28135      0.45797
   
 Atom       H46     
 Charge    0.50315
  
  sum of atomic charges:     1.000000
   
 RMS Error   5.53E-04 hartrees
 
  
  Moments from electrostatic potential charges:
  Dipole Moments  (Debye)
     X=     5.7053     Y=    -3.3129     Z=     1.1519  Tot=     6.6973
  
  Peak memory usage:   4833 Mb
  
  end of program ch
   
 Time(ch)  user:        6.1  user+sys:        6.1  wallclock:        3.6

 Total cpu seconds     user:   19797.870   user+sys:   19797.870
  
 Total elapsed time:    1773 seconds

Job ethynylestradiol_4 completed on n053 at Sun Jan  8 22:54:17 2017
