Job Fluoroanthene_2 started on n075 at Sun Jan  8 22:24:51 2017
jobid: u01-0-58730278

  +--------------------------------------------------------------------+
  |  Jaguar version 9.3, release  15                                   |
  |                                                                    |
  |  Copyright Schrodinger, Inc.                                       |
  |  All Rights Reserved.                                              |
  |                                                                    |
  |  The following have contributed to Jaguar (listed alphabetically): |
  |  Mike Beachy, Art Bochevarov, Dale Braden, Yixiang Cao,            |
  |  Chris Cortis, Rich Friesner, Bill Goddard, Hod Greeley,           |
  |  Tom Hughes, Leif Jacobson, Jean-Marc Langlois,                    |
  |  Daniel Mainz, Rob Murphy, Dean Philipp,                           |
  |  Tom Pollard, Murco Ringnalda, Mark Watson.                        |
  |                                                                    |
  |  Use of this program should be acknowledged in publications as:    |
  |                                                                    |
  |  Jaguar, version 9.3, Schrodinger, Inc., New York, NY, 2016.       |
  |                                                                    |
  |  A. D. Bochevarov, E. Harder, T. F. Hughes, J. R. Greenwood,       |
  |  D. A. Braden, D. M. Philipp, D. Rinaldo, M. D. Halls,             |
  |  J. Zhang, R. A. Friesner, "Jaguar: A High-Performance Quantum     |
  |  Chemistry Software Program with Strengths in Life and Materials   |
  |  Sciences", Int. J. Quantum Chem., 2013, 113(18), 2110-2142.       |
  +--------------------------------------------------------------------+
  
  start of program pre
  
  Job name: Fluoroanthene_2
  Executables used: /home/applications/Schrodinger_Suites_2016-3/jaguar-v9.3/bin/Linux-x86_64
  Temporary files : /scratch/Schrodinger_Suites/pbeni001/Fluoroanthene_2#u01-0-58730278
  Maestro file (input):  Fluoroanthene_2.mae
  Maestro file (output): Fluoroanthene_2.01.mae
  
  basis set:             6-31g                           
  net molecular charge:    1
  multiplicity:            2
  
  Using up to  16 threads per process
  
  number of basis functions....          218
  
 Input geometry:
                                   angstroms
  atom               x                 y                 z
  C1            1.3086583000      0.0487421000      0.7538146000 
  C2            1.9739753000      1.1460690000      0.3237282000 
  C3            3.0153646000      1.2978843000      1.1686262000 
  C4            4.0965275000      0.4831899000      0.7592526000 
  C5            3.9544088000     -0.6263757000      1.3444212000 
  C6            2.2698306000     -0.9707996000      0.9819503000 
  C7            5.4264998000     -0.3694796000      2.0179678000 
  C8            6.6340017000     -0.0786303000      1.1913733000 
  C9            6.3443118000     -0.0894079000     -0.1343093000 
  C10           4.9679128000      0.1675919000     -0.3523517000 
  C11           4.6977703000     -0.2525988000     -1.7047558000 
  C12           3.5481016000     -0.4875681000     -2.3305660000 
  C13           3.4796824000     -0.8070225000     -3.7495736000 
  O14           2.3804073000     -0.8976555000     -4.2739826000 
  C15           4.7920766000     -0.9508699000     -4.5003833000 
  O16           4.7777372000     -1.1881682000     -5.6969983000 
  C17           6.0431132000     -0.7943142000     -3.7192338000 
  C18           5.9473897000     -0.4983155000     -2.3798019000 
  C19           7.0036124000     -0.3357729000     -1.4436434000 
  C20           8.2849565000     -0.4566520000     -1.9643904000 
  C21           8.4212976000     -0.7334416000     -3.3638598000 
  C22           7.3120461000     -0.9061369000     -4.2299959000 
  H23           0.3767137000      0.1784470000      1.3181951000 
  H24           2.4306182000      0.9777648000     -0.6698617000 
  H25           2.7138061000      1.1019330000      2.2575210000 
  H26           2.1508366000     -1.3346626000     -0.1458709000 
  H27           5.4785806000      0.1406940000      2.9851980000 
  H28           7.6145004000      0.2015672000      1.5861514000 
  H29           2.5604768000     -0.4119323000     -1.9333182000 
  H30           9.1883866000     -0.3383465000     -1.3668860000 
  H31           9.4122922000     -0.8257836000     -3.8092404000 
  H32           7.4234671000     -1.1181992000     -5.2896358000 
   
  principal moments of inertia:
        amu*angstrom^2:     1033.01762     1848.61787     2754.79724
                g*cm^2: 1.71536590E-37 3.06970181E-37 4.57444787E-37
   
  rotational constants:
               cm^(-1):      0.01631882      0.00911904      0.00611937
                   GHz:      0.48922593      0.27338208      0.18345416
   
  Molecular weight:     282.07 amu
   
  Stoichiometry: C20H10O2
  Molecular Point Group: C1      
  Point Group used: C1
  
 
Number of optimization coordinates:   123
Number of independent coordinates:    123
Number of non-redundant coordinates:   90
Number of frozen coordinates:           0
Number of harmonic constraints:         0
 
Number of geometric degrees of freedom:    90
Maximum geometric degrees of freedom:      90
 " " " " " excluding dummy atoms:          90
 
  nuclear repulsion energy.......    1623.445550319 hartrees
 
 Non-default options chosen:
   SCF calculation type: UDFT(b3lyp)                 
   UDFT=Becke_3_Parameter/HF+Slater+Becke88+VWN+LYP (B3LYP)
   Geometry will be optimized in redundant internal coordinates
   Electrostatic potential fit to point charges on atomic centers
   Electrostatic potential fitting constrained to reproduce
     total charge:                yes
     dipole moment:               yes
     traceless quadrupole moment: no 
     traceless octapole moment:   no 
  
 Temporary integer options set:
     73=  2
  
  Peak memory usage:   3788 Mb
  
  end of program pre
   
 Time(pre)  user:        9.3  user+sys:        9.3  wallclock:        2.6
  
  start of program onee
  
  smallest eigenvalue of S:    3.450E-04
  number of canonical orbitals.....          216
  Peak memory usage:   3812 Mb
  
  end of program onee
   
 Time(onee)  user:        7.7  user+sys:        7.7  wallclock:        1.1
  
  start of program hfig
  
  initial wavefunction generated automatically from atomic wavefunctions
  
  -------------------
  Alpha orbital space
  -------------------
 
  Irreducible     Total no   No of occupied orbitals 
  representation  orbitals   Shell_1  Shell_2    ...
  No Symm          216         73
  ------------------------
  Orbital occupation/shell    1.000
 
  ------------------
  Beta orbital space
  ------------------
 
  Irreducible     Total no   No of occupied orbitals 
  representation  orbitals   Shell_1  Shell_2    ...
  No Symm          216         72
  ------------------------
  Orbital occupation/shell    1.000
 
  
  
    Unrestricted Spin Properties ...
    Sz*(Sz+1) ..............     0.750
    <S**2> of initial guess      0.750
  
  
  Peak memory usage:   3738 Mb
  
  end of program hfig
   
 Time(hfig)  user:        5.1  user+sys:        5.1  wallclock:        1.4
  
  start of program probe
  
  Peak memory usage:   3726 Mb
  
  end of program probe
   
 Time(probe)  user:        3.5  user+sys:        3.5  wallclock:        0.7
  
  start of program grid
  
   grid     grid set  grid #  grid sym
  ------    --------  ------  --------
  coarse        0        0        1
  medium        2        1        1
  fine          0        0        1
  ultrafine     4        2        1
  charge       -1        3        1
  gradient      4        2        1
  density       0        0        1
  DFT-fine    -11        4        1
  DFT-med.    -10        5        1
  DFT-grad    -12        6        1
  DFT-der2      0        0        1
  DFT-cphf      0        0        1
  LMP2-enrg     4        2        1
  LMP2-grad     2        1        1
  DFT-cphf2     0        0        1
  PBF-dens      0        0        1
  plotting      0        0        1
  Rel-grad    -17        0        1
  
  number of gridpoints: 
     atom        C1       C2       C3       C4       C5       C6       C7
  grid # 1       92       95       96       94       99      100       99
  grid # 2      328      343      349      346      394      384      356
  grid # 3       72      338      344       82      288      389      263
  grid # 4     4304     4304     4304     4304     4304     4304     4304
  grid # 5     1192     1192     1192     1192     1192     1192     1192
  grid # 6     5226     5226     5226     5226     5226     5226     5226
   
  number of gridpoints: 
     atom        C8       C9      C10      C11      C12      C13      O14
  grid # 1       95       98       99      100       94       98      123
  grid # 2      337      371      362      365      329      365      508
  grid # 3      188      223      173      205      152      249     1444
  grid # 4     4304     4304     4304     4304     4304     4304     4304
  grid # 5     1192     1192     1192     1192     1192     1192     1192
  grid # 6     5226     5226     5226     5226     5226     5226     5226
   
  number of gridpoints: 
     atom       C15      O16      C17      C18      C19      C20      C21
  grid # 1       99      123      102      100       99       97       97
  grid # 2      358      504      367      364      364      339      340
  grid # 3      250     1338      246      245      261      225      231
  grid # 4     4304     4304     4304     4304     4304     4304     4304
  grid # 5     1192     1192     1192     1192     1192     1192     1192
  grid # 6     5226     5226     5226     5226     5226     5226     5226
   
  number of gridpoints: 
     atom       C22      H23      H24      H25      H26      H27      H28
  grid # 1       97      116      104      110      107      115      118
  grid # 2      336      459      411      442      438      451      457
  grid # 3      231     1457      570      943      777     1224     1318
  grid # 4     4304     4304     4304     4304     4304     4304     4304
  grid # 5     1192     1192     1192     1192     1192     1192     1192
  grid # 6     5226     5226     5226     5226     5226     5226     5226
   
  number of gridpoints: 
     atom       H29      H30      H31      H32    total
  grid # 1      101      118      118      118     3321
  grid # 2      404      451      451      444    12517
  grid # 3      355     1271     1328     1159    17839
  grid # 4     4304     4304     4304     4304   137728
  grid # 5     1192     1192     1192     1192    38144
  grid # 6     5226     5226     5226     5226   167232
   
  Peak memory usage:   3772 Mb
  
  end of program grid
   
 Time(grid)  user:       22.1  user+sys:       22.1  wallclock:        2.3
  
  start of program rwr
  
  Peak memory usage:   3725 Mb
  
  end of program rwr
   
 Time(rwr)  user:       48.8  user+sys:       48.8  wallclock:        4.6
  
  start of program scf
  
 number of electrons..........        145
 number of alpha electrons....         73
 number of beta electrons.....         72
 number of alpha orbitals.....        216
 number of beta orbitals......        216
 number of alpha occupied orb..        73
 number of alpha virtual orb...       143
 number of beta occupied orb...        72
 number of beta virtual orb....       144
 SCF type: UDFT=Becke_3_Parameter/HF+Slater+Becke88+VWN+LYP (B3LYP)
 Energy computed with NOPS off.
  
       i  u  d  i  g                   
       t  p  i  c  r                                 RMS    maximum
       e  d  i  u  i                       energy  density   DIIS  
       r  t  s  t  d       total energy    change  change    error 
  
etot    1  N  N  5  M    -913.55832838122           5.3E-02  1.4E-01
etot    2  Y  Y  6  M    -866.54834214100 -4.7E+01  4.6E-02  7.0E-01
etot    3  Y  Y  6  M    -912.84429699681  4.6E+01  3.6E-02  2.3E-01
etot    4  N  Y  2  U    -899.59325242458 -1.3E+01  3.9E-02  4.3E-01
etot    5  N  Y  2  U    -915.78911082220  1.6E+01  1.3E-02  1.7E-01
etot    6  Y  Y  6  M    -914.68917751741 -1.1E+00  9.7E-03  1.6E-01
etot    7  N  Y  2  U    -916.89134502410  2.2E+00  5.1E-03  1.4E-01
etot    8  Y  Y  6  M    -917.25587347093  3.6E-01  5.0E-03  6.8E-02
etot    9  N  Y  2  U    -917.21863342406 -3.7E-02  3.7E-03  6.2E-02
etot   10  N  Y  2  U    -917.41908182321  2.0E-01  1.5E-03  1.7E-02
etot   11  Y  Y  6  M    -917.43927182155  2.0E-02  7.3E-04  1.1E-02
etot   12  N  Y  2  U    -917.44714159005  7.9E-03  3.4E-04  4.5E-03
etot   13  Y  Y  6  M    -917.44892012418  1.8E-03  1.8E-04  2.2E-03
etot   14  Y  Y  6  M    -917.44938954306  4.7E-04  2.0E-04  1.5E-03
etot   15  Y  Y  6  M    -917.44977114190  3.8E-04  7.8E-05  1.1E-03
etot   16  Y  Y  6  M    -917.44990652659  1.4E-04  9.0E-05  8.7E-04
etot   17  N  Y  2  U    -917.45002035814  1.1E-04  7.6E-05  7.7E-04
etot   18  Y  Y  6  M    -917.45009883152  7.8E-05  1.3E-04  7.0E-04
etot   19  Y  Y  6  M    -917.45023510234  1.4E-04  2.6E-05  8.3E-04
etot   20  N  Y  2  U    -917.45026311274  2.8E-05  1.5E-04  8.7E-04
etot   21  Y  Y  6  M    -917.45012343306 -1.4E-04  1.4E-04  6.9E-04
etot   22  Y  Y  6  M    -917.45004389950 -8.0E-05  1.2E-04  3.8E-04
etot   23  Y  Y  6  M    -917.44999815888 -4.6E-05  5.0E-05  4.1E-04
etot   24  N  Y  2  U    -917.44999667065 -1.5E-06  7.8E-05  3.0E-04
etot   25  Y  Y  6  M    -917.44998939523 -7.3E-06  3.4E-05  2.5E-04
etot   26  N  Y  2  U    -917.44999489890  5.5E-06  3.1E-05  1.4E-04
etot   27  N  Y  2  U    -917.44999759843  2.7E-06  2.7E-05  1.3E-04
etot   28  N  Y  2  U    -917.45000045946  2.9E-06  1.4E-05  1.2E-04
etot   29  N  Y  2  U    -917.45000119744  7.4E-07  6.8E-06  3.4E-05
etot   30  N  Y  2  U    -917.45000140160  2.0E-07  5.8E-06  2.7E-05
etot   31  N  Y  2  U    -917.45000152395  1.2E-07  3.4E-06  1.1E-05
etot   32  N  N  2  U    -917.45000155003  2.6E-08  0.0E+00  0.0E+00
  
  
 Energy components, in hartrees:
   (A)  Nuclear repulsion............    1623.44555031886
   (E)  Total one-electron terms.....   -4444.76979035076
   (I)  Total two-electron terms.....    1903.87423848187
   (L)  Electronic energy............   -2540.89555186889  (E+I)
   (N)  Total energy.................    -917.45000155003  (A+L)
   (O)  Gas phase energy.............    -917.45000155003
  
                                 Total             Coulomb       Exchange+Corr.
 Total two-electron terms    1903.87423848187    2032.94608368232    -129.07184520045
   Hamiltonian  1........     976.38485903580    1022.32693133749     -45.94207230169
   Hamiltonian  2........     965.03588312988    1010.61915234483     -45.58326921495
  
 SCFE: SCF energy: UDFT(b3lyp)      -917.45000155003 hartrees   iterations:  32
  
 
 Alpha HOMO energy:    -0.36677
 Alpha LUMO energy:    -0.31827
 
  Alpha Orbital energies (hartrees): 
   -19.28294   -19.28032   -10.45090   -10.43832   -10.43216   -10.43051
   -10.43002   -10.41251   -10.41084   -10.41012   -10.40294   -10.40081
   -10.38372   -10.38296   -10.37547   -10.36339   -10.35111   -10.35008
   -10.34812   -10.34034   -10.33723   -10.33584    -1.21065    -1.18414
    -1.16397    -1.09374    -1.05667    -0.99819    -0.98362    -0.94888
    -0.93443    -0.90059    -0.89313    -0.85263    -0.83579    -0.79566
    -0.79051    -0.76901    -0.76066    -0.74818    -0.72758    -0.70563
    -0.68399    -0.66606    -0.65961    -0.65006    -0.63931    -0.62824
    -0.61310    -0.60830    -0.59853    -0.59205    -0.58488    -0.58020
    -0.56982    -0.56182    -0.55574    -0.55351    -0.54109    -0.53615
    -0.51504    -0.50657    -0.50098    -0.48951    -0.46774    -0.45572
    -0.42061    -0.41663    -0.41208    -0.39186    -0.37897    -0.37127
    -0.36677    -0.31827    -0.27052    -0.24750    -0.20738    -0.20135
    -0.18355    -0.17209    -0.14029    -0.09203    -0.08375
 
 
 Beta HOMO energy:    -0.36828
 Beta LUMO energy:    -0.30987
 
  Beta Orbital energies (hartrees): 
   -19.28243   -19.28035   -10.45063   -10.43639   -10.43365   -10.42848
   -10.41640   -10.41118   -10.41084   -10.41027   -10.40459   -10.40085
   -10.38374   -10.38201   -10.37570   -10.36349   -10.35131   -10.34946
   -10.34823   -10.34028   -10.33725   -10.33616    -1.21021    -1.18374
    -1.15928    -1.09150    -1.05570    -0.99696    -0.98335    -0.94378
    -0.92485    -0.90033    -0.89313    -0.84987    -0.83145    -0.79297
    -0.78989    -0.76469    -0.75819    -0.74705    -0.72509    -0.70353
    -0.68157    -0.66446    -0.65743    -0.64532    -0.63866    -0.62389
    -0.60860    -0.60722    -0.59683    -0.59011    -0.58427    -0.57942
    -0.56758    -0.56099    -0.55447    -0.55285    -0.54137    -0.53565
    -0.51429    -0.50582    -0.50090    -0.48666    -0.46401    -0.45137
    -0.41865    -0.41566    -0.39680    -0.37900    -0.37639    -0.36828
    -0.30987    -0.27959    -0.24789    -0.24633    -0.20752    -0.19375
    -0.17452    -0.16934    -0.14030    -0.09130
 
  
  
    Unrestricted Spin Properties ...
    Sz*(Sz+1)      0.750
    <S**2> ...     0.844
  
  
  Peak memory usage:   5784 Mb
  
  end of program scf
   
 Time(scf)  user:      486.4  user+sys:      486.4  wallclock:       36.5
  
  start of program der1a
  
  Peak memory usage:   3824 Mb
  
  end of program der1a
   
 Time(der1a)  user:        6.0  user+sys:        6.0  wallclock:        1.0
  
  start of program rwr
  
  Peak memory usage:   3737 Mb
  
  end of program rwr
   
 Time(rwr)  user:       38.4  user+sys:       38.4  wallclock:        4.7
  
  start of program der1b
  
   
  forces (hartrees/bohr) : total     
   
 atom  label           x              y              z
 ---- --------   -------------  -------------  -------------
    1 C1         -6.605661E-02  -1.351589E-02   9.964883E-02
    2 C2          4.656927E-02   4.161802E-02  -1.122750E-01
    3 C3         -6.782025E-03   7.698613E-02   8.912138E-02
    4 C4          4.402704E-02   1.473803E-01  -4.962279E-02
    5 C5          5.773714E-03  -1.417840E-01   4.351803E-02
    6 C6         -1.399456E-02  -8.930227E-02  -6.196400E-02
    7 C7          2.766226E-02   3.114422E-02  -8.447029E-03
    8 C8         -2.642481E-02  -2.682246E-02   6.264020E-02
    9 C9         -1.549700E-03   1.348329E-02  -4.163480E-02
   10 C10         9.940613E-03  -1.458325E-02  -3.463162E-02
   11 C11        -1.660915E-02   3.086245E-03   4.737978E-03
   12 C12        -2.460691E-02  -3.622339E-04  -1.589099E-02
   13 C13         2.332108E-02   2.541370E-03   1.884740E-02
   14 O14        -2.590128E-02  -5.624683E-03  -2.424560E-02
   15 C15         2.455348E-03   2.398707E-03   1.350011E-02
   16 O16         3.121110E-03  -5.900154E-03  -2.948727E-02
   17 C17        -1.570954E-02   1.671309E-03   5.712152E-03
   18 C18        -3.950069E-03   1.114603E-02   2.439722E-02
   19 C19        -1.033540E-02  -1.314126E-03  -6.125602E-03
   20 C20         2.003020E-02  -4.784847E-03  -1.666989E-02
   21 C21        -1.528731E-04   3.436900E-05   2.982258E-03
   22 C22         2.935008E-02  -1.937516E-03  -4.788025E-03
   23 H23        -1.839403E-03  -1.091375E-02   2.352026E-03
   24 H24        -1.874584E-02   1.679421E-02  -6.655462E-03
   25 H25         1.946924E-02   2.145969E-02  -2.303170E-02
   26 H26         3.051639E-02  -3.065815E-02   3.893028E-02
   27 H27        -1.280663E-02  -1.539561E-02   4.763433E-03
   28 H28        -8.178058E-03  -1.068405E-02   8.522568E-03
   29 H29        -8.267019E-03   3.444139E-03   9.112763E-03
   30 H30        -3.638448E-03  -8.501214E-04  -1.167282E-03
   31 H31        -2.135847E-03   1.305197E-03   6.059542E-03
   32 H32         5.208642E-03  -1.860660E-04   1.705914E-03
 -------------   -------------  -------------  -------------
     total       -2.391726E-04  -1.258988E-04  -8.496497E-05
   
  Peak memory usage:   5739 Mb
  
  end of program der1b
   
 Time(der1b)  user:       49.9  user+sys:       49.9  wallclock:        4.4
  
  start of program geopt
  
 ----------------------------------------------------------------------------
  Geometry optimization step  1
  Total energy:      -917.45000155003 hartrees
 ----------------------------------------------------------------------------
  
  
  Level shifts adjusted to satisfy step-size constraints
   Step size:    0.3000291
   Cos(theta):   0.9925529
   Final level shift:  -9.2799561E-01
  
  gradient maximum:        1.8220E-01 .  (  4.5000E-04 )
  gradient rms:            3.5701E-02 .  (  3.0000E-04 )
  displacement maximum:    1.2346E-01 .  (  1.8000E-03 )
  displacement rms:        2.7047E-02 .  (  1.2000E-03 )
  
  predicted energy change:  -1.0070E-01
  step size:     0.29997
  trust radius:  0.30000
  
  molecular structure not yet converged...
  
  center of mass moved by:
     x:     1.1277E-02     y:     1.6831E-02     z:    -4.9382E-02
  
  new geometry: 
                                   angstroms
  atom               x                 y                 z
  C1            1.2869502650     -0.0051146032      1.0144413485 
  C2            1.8960453710      1.1174888932      0.4252761444 
  C3            3.0090749942      1.3787954828      1.1906510085 
  C4            4.0765810055      0.5343534699      0.7433239452 
  C5            3.9633010238     -0.6263208810      1.3781282318 
  C6            2.2714409495     -1.0458509691      1.1913279905 
  C7            5.4289580273     -0.3769122968      2.0290593619 
  C8            6.5996618630     -0.0967613922      1.1890913875 
  C9            6.2920437072     -0.0868514390     -0.1574557930 
  C10           4.9159198786      0.1950767230     -0.3995779497 
  C11           4.6459322900     -0.2275179712     -1.7655436039 
  C12           3.5047787584     -0.4494166367     -2.4400074712 
  C13           3.5064108469     -0.7749050632     -3.8683104872 
  O14           2.4347535782     -0.8605053299     -4.4706176130 
  C15           4.8521671346     -0.9398989384     -4.5665232527 
  O16           4.8913374005     -1.1834895055     -5.7711613217 
  C17           6.0725584540     -0.7960094021     -3.7342199847 
  C18           5.9257037037     -0.4919351218     -2.3961719458 
  C19           6.9678506778     -0.3480897855     -1.4456110388 
  C20           8.2699381239     -0.4937872947     -1.9213211998 
  C21           8.4535773151     -0.7777476013     -3.3046128470 
  C22           7.3711675982     -0.9334029750     -4.2011288137 
  H23           0.3959858324      0.1197413035      1.6435852218 
  H24           2.2021248482      0.9311656204     -0.6195352999 
  H25           2.8204228500      1.2942870362      2.3049044979 
  H26           2.0877465706     -1.5591568834      0.1478973953 
  H27           5.4726964675      0.1104336495      3.0067242227 
  H28           7.5824280750      0.1657247341      1.5823190571 
  H29           2.5028728234     -0.3536500561     -2.0715194344 
  H30           9.1507310436     -0.3903093338     -1.2910077942 
  H31           9.4602229116     -0.8871858468     -3.7040369832 
  H32           7.5270182723     -1.1555077788     -5.2526089551 
   
  nuclear repulsion energy.......    1604.945343527 hartrees
  -------------------------------------------------
 /  end of geometry optimization iteration   1   /
 -------------------------------------------------
   
  Peak memory usage:   4726 Mb
  
  end of program geopt
   
 Time(geopt)  user:       11.5  user+sys:       11.5  wallclock:        1.2
  
  start of program onee
  
  smallest eigenvalue of S:    3.593E-04
  number of canonical orbitals.....          216
  Peak memory usage:   3812 Mb
  
  end of program onee
   
 Time(onee)  user:        3.8  user+sys:        3.8  wallclock:        0.9
  
  start of program probe
  
  Peak memory usage:   3727 Mb
  
  end of program probe
   
 Time(probe)  user:        3.5  user+sys:        3.5  wallclock:        0.8
  
  start of program grid
  
   grid     grid set  grid #  grid sym
  ------    --------  ------  --------
  coarse        0        0        1
  medium        2        1        1
  fine          0        0        1
  ultrafine     4        2        1
  charge       -1        3        1
  gradient      4        2        1
  density       0        0        1
  DFT-fine    -11        4        1
  DFT-med.    -10        5        1
  DFT-grad    -12        6        1
  DFT-der2      0        0        1
  DFT-cphf      0        0        1
  LMP2-enrg     4        2        1
  LMP2-grad     2        1        1
  DFT-cphf2     0        0        1
  PBF-dens      0        0        1
  plotting      0        0        1
  Rel-grad    -17        0        1
  
  number of gridpoints: 
     atom        C1       C2       C3       C4       C5       C6       C7
  grid # 1       93       97       97       96      103      100       97
  grid # 2      333      351      351      352      395      384      352
  grid # 3       78      323      345       91      248      379      253
  grid # 4     4304     4304     4304     4304     4304     4304     4304
  grid # 5     1192     1192     1192     1192     1192     1192     1192
  grid # 6     5226     5226     5226     5226     5226     5226     5226
   
  number of gridpoints: 
     atom        C8       C9      C10      C11      C12      C13      O14
  grid # 1       96       99      100      100       95       98      123
  grid # 2      337      371      364      369      334      364      508
  grid # 3      190      222      185      211      175      249     1452
  grid # 4     4304     4304     4304     4304     4304     4304     4304
  grid # 5     1192     1192     1192     1192     1192     1192     1192
  grid # 6     5226     5226     5226     5226     5226     5226     5226
   
  number of gridpoints: 
     atom       C15      O16      C17      C18      C19      C20      C21
  grid # 1       99      123      102       97      100       97       97
  grid # 2      360      504      366      360      359      338      340
  grid # 3      252     1337      253      243      257      229      231
  grid # 4     4304     4304     4304     4304     4304     4304     4304
  grid # 5     1192     1192     1192     1192     1192     1192     1192
  grid # 6     5226     5226     5226     5226     5226     5226     5226
   
  number of gridpoints: 
     atom       C22      H23      H24      H25      H26      H27      H28
  grid # 1       97      117      108      111      111      115      118
  grid # 2      335      461      420      445      447      452      456
  grid # 3      232     1464      606      968      943     1214     1300
  grid # 4     4304     4304     4304     4304     4304     4304     4304
  grid # 5     1192     1192     1192     1192     1192     1192     1192
  grid # 6     5226     5226     5226     5226     5226     5226     5226
   
  number of gridpoints: 
     atom       H29      H30      H31      H32    total
  grid # 1      104      118      118      118     3344
  grid # 2      420      450      451      444    12573
  grid # 3      457     1246     1322     1157    18112
  grid # 4     4304     4304     4304     4304   137728
  grid # 5     1192     1192     1192     1192    38144
  grid # 6     5226     5226     5226     5226   167232
   
  Peak memory usage:   3771 Mb
  
  end of program grid
   
 Time(grid)  user:       18.8  user+sys:       18.8  wallclock:        2.2
  
  start of program rwr
  
  Peak memory usage:   3727 Mb
  
  end of program rwr
   
 Time(rwr)  user:       48.5  user+sys:       48.5  wallclock:        4.7
  
  start of program scf
  
 Energy computed with NOPS off.
  
       i  u  d  i  g                   
       t  p  i  c  r                                 RMS    maximum
       e  d  i  u  i                       energy  density   DIIS  
       r  t  s  t  d       total energy    change  change    error 
  
etot    1  N  N  2  U    -917.51223286931           1.7E-03  9.5E-03
etot    2  Y  Y  6  M    -917.54248952638  3.0E-02  9.2E-04  5.9E-03
etot    3  N  Y  2  U    -917.53569232632 -6.8E-03  7.7E-04  1.0E-02
etot    4  N  Y  2  U    -917.54464180462  8.9E-03  3.0E-04  6.5E-03
etot    5  Y  Y  6  M    -917.54587030899  1.2E-03  1.0E-04  3.3E-03
etot    6  Y  Y  6  M    -917.54614140725  2.7E-04  5.1E-05  4.0E-04
etot    7  Y  Y  6  M    -917.54618273801  4.1E-05  4.4E-05  5.9E-04
etot    8  N  Y  2  U    -917.54624660316  6.4E-05  3.7E-05  3.9E-04
etot    9  N  Y  2  U    -917.54626823500  2.2E-05  1.6E-05  3.7E-04
etot   10  N  Y  2  U    -917.54627858492  1.0E-05  3.1E-05  4.0E-04
etot   11  N  Y  2  U    -917.54625951477 -1.9E-05  7.4E-05  3.4E-04
etot   12  Y  Y  6  M    -917.54622605562 -3.3E-05  8.6E-05  2.5E-04
etot   13  Y  Y  6  M    -917.54620787247 -1.8E-05  4.8E-05  1.6E-04
etot   14  N  Y  2  U    -917.54619954568 -8.3E-06  2.7E-05  1.5E-04
etot   15  N  Y  2  U    -917.54620042207  8.8E-07  2.1E-05  1.3E-04
etot   16  N  Y  2  U    -917.54620180697  1.4E-06  9.3E-06  9.5E-05
etot   17  N  Y  2  U    -917.54620269495  8.9E-07  1.7E-05  6.9E-05
etot   18  N  Y  2  U    -917.54620296543  2.7E-07  1.9E-05  1.3E-04
etot   19  N  Y  2  U    -917.54620323719  2.7E-07  4.0E-06  4.3E-05
etot   20  N  N  2  U    -917.54620338854  1.5E-07  0.0E+00  0.0E+00
  
  
 Energy components, in hartrees:
   (A)  Nuclear repulsion............    1604.94534352712
   (E)  Total one-electron terms.....   -4408.48750729015
   (I)  Total two-electron terms.....    1885.99596037449
   (L)  Electronic energy............   -2522.49154691565  (E+I)
   (N)  Total energy.................    -917.54620338854  (A+L)
   (O)  Gas phase energy.............    -917.54620338854
  
                                 Total             Coulomb       Exchange+Corr.
 Total two-electron terms    1885.99596037449    2014.89149473211    -128.89553435761
   Hamiltonian  1........     967.29453142565    1013.17075490734     -45.87622348169
   Hamiltonian  2........     956.20020225433    1001.72073982477     -45.52053757044
  
 SCFE: SCF energy: UDFT(b3lyp)      -917.54620338854 hartrees   iterations:  20
  
 
 Alpha HOMO energy:    -0.36423
 Alpha LUMO energy:    -0.31469
 
  Alpha Orbital energies (hartrees): 
   -19.28221   -19.27874   -10.45443   -10.43802   -10.43514   -10.42754
   -10.42706   -10.41105   -10.41100   -10.41028   -10.40817   -10.40109
   -10.38626   -10.38292   -10.37931   -10.36167   -10.35401   -10.35203
   -10.34732   -10.34145   -10.33662   -10.33549    -1.20261    -1.17586
    -1.13676    -1.07765    -1.04262    -0.98653    -0.97975    -0.94419
    -0.92800    -0.89924    -0.89006    -0.84747    -0.82737    -0.79223
    -0.78540    -0.76328    -0.75574    -0.74480    -0.72301    -0.69666
    -0.67843    -0.65755    -0.65521    -0.64475    -0.63851    -0.61954
    -0.60989    -0.60562    -0.59930    -0.59149    -0.58441    -0.57874
    -0.56849    -0.56230    -0.55443    -0.55063    -0.53869    -0.53592
    -0.51195    -0.50414    -0.50109    -0.48707    -0.46340    -0.45280
    -0.42333    -0.41328    -0.40898    -0.39109    -0.37786    -0.36911
    -0.36423    -0.31469    -0.26974    -0.24883    -0.21682    -0.20542
    -0.17568    -0.16223    -0.13914    -0.09045    -0.08562
 
 
 Beta HOMO energy:    -0.36790
 Beta LUMO energy:    -0.30626
 
  Beta Orbital energies (hartrees): 
   -19.28164   -19.27878   -10.45470   -10.43567   -10.43274   -10.42873
   -10.41428   -10.41118   -10.41074   -10.41027   -10.40929   -10.40138
   -10.38675   -10.38117   -10.37955   -10.36180   -10.35333   -10.35220
   -10.34743   -10.34139   -10.33693   -10.33553    -1.20214    -1.17542
    -1.13279    -1.07608    -1.04086    -0.98537    -0.97880    -0.93986
    -0.91749    -0.89895    -0.89042    -0.84696    -0.82143    -0.78981
    -0.78498    -0.75605    -0.75468    -0.74361    -0.72055    -0.69479
    -0.67621    -0.65694    -0.65347    -0.63876    -0.63809    -0.61518
    -0.60655    -0.60351    -0.59776    -0.58932    -0.58344    -0.57865
    -0.56591    -0.56095    -0.55328    -0.55008    -0.53897    -0.53553
    -0.51100    -0.50365    -0.50091    -0.48451    -0.46100    -0.44661
    -0.41627    -0.41259    -0.39829    -0.37944    -0.37350    -0.36790
    -0.30626    -0.27982    -0.24923    -0.24335    -0.21439    -0.20177
    -0.17475    -0.15115    -0.13915    -0.09075
 
  
  
    Unrestricted Spin Properties ...
    Sz*(Sz+1)      0.750
    <S**2> ...     0.857
  
  
  Peak memory usage:   5784 Mb
  
  end of program scf
   
 Time(scf)  user:      347.2  user+sys:      347.2  wallclock:       26.0
  
  start of program der1a
  
  Peak memory usage:   3824 Mb
  
  end of program der1a
   
 Time(der1a)  user:        4.3  user+sys:        4.3  wallclock:        0.7
  
  start of program rwr
  
  Peak memory usage:   3732 Mb
  
  end of program rwr
   
 Time(rwr)  user:       33.8  user+sys:       33.8  wallclock:        4.2
  
  start of program der1b
  
   
  forces (hartrees/bohr) : total     
   
 atom  label           x              y              z
 ---- --------   -------------  -------------  -------------
    1 C1         -2.047657E-02   1.308531E-02   7.254601E-02
    2 C2          2.768119E-02   1.859979E-03  -7.659618E-02
    3 C3         -8.727751E-03   5.130513E-02   5.936135E-02
    4 C4          6.507210E-03   7.106248E-02  -2.309821E-02
    5 C5          1.952273E-03  -5.823281E-02   1.307525E-02
    6 C6         -5.143535E-03  -6.061633E-02  -5.697951E-02
    7 C7          2.364272E-02   2.504779E-02  -1.509294E-02
    8 C8         -3.080591E-02  -2.415475E-02   4.851498E-02
    9 C9         -3.394731E-03   1.189686E-02  -2.924202E-02
   10 C10         1.414620E-02  -1.561401E-02  -2.027324E-02
   11 C11        -1.579606E-02   3.396112E-03   4.308019E-03
   12 C12        -1.208982E-02   2.499600E-03  -1.043684E-02
   13 C13         1.056871E-02   1.196671E-03   1.047599E-02
   14 O14        -1.066651E-02  -3.434436E-03  -1.239654E-02
   15 C15         3.749587E-03   6.032372E-04   4.208289E-03
   16 O16         2.292153E-03  -2.976922E-03  -1.380128E-02
   17 C17        -7.701827E-03   1.155092E-03   2.883746E-03
   18 C18        -4.671072E-03   8.609071E-03   1.189747E-02
   19 C19        -7.862118E-03  -1.271932E-03  -3.335790E-03
   20 C20         1.403854E-02  -4.276378E-03  -1.087001E-02
   21 C21        -1.374657E-03   2.549329E-04   2.486550E-03
   22 C22         1.806120E-02  -1.778652E-03  -1.936886E-03
   23 H23         2.581210E-03  -7.595218E-03   3.422296E-03
   24 H24        -1.258885E-02   1.179293E-02  -9.938270E-04
   25 H25         1.224912E-02   1.443727E-02  -2.260243E-02
   26 H26         2.751959E-02  -1.947894E-02   4.023853E-02
   27 H27        -9.020258E-03  -1.475257E-02   4.720166E-03
   28 H28        -6.058861E-03  -7.880638E-03   5.944131E-03
   29 H29        -6.445432E-03   2.838323E-03   8.445042E-03
   30 H30        -3.229481E-03  -4.661592E-04  -7.948742E-05
   31 H31        -1.932977E-03   9.458219E-04   3.948958E-03
   32 H32         2.910983E-03  -1.596609E-04   1.420495E-03
 -------------   -------------  -------------  -------------
     total       -8.572409E-05  -7.027959E-04   1.620758E-04
   
  Peak memory usage:   5739 Mb
  
  end of program der1b
   
 Time(der1b)  user:       44.8  user+sys:       44.8  wallclock:        3.8
  
  start of program geopt
  
 ----------------------------------------------------------------------------
  Geometry optimization step  2
  Total energy:      -917.54620338854 hartrees
 ----------------------------------------------------------------------------
  
  
  Level shifts adjusted to satisfy step-size constraints
   Step size:    0.3000420
   Cos(theta):   0.9723567
   Final level shift:  -5.7898995E-01
  
  energy change:          -9.6202E-02 .  (  5.0000E-05 )
  gradient maximum:        9.1301E-02 .  (  4.5000E-04 )
  gradient rms:            2.3501E-02 .  (  3.0000E-04 )
  displacement maximum:    1.2392E-01 .  (  1.8000E-03 )
  displacement rms:        2.7048E-02 .  (  1.2000E-03 )
  
  predicted energy change:  -6.4088E-02
  step size:     0.29997
  trust radius:  0.30000
  
  molecular structure not yet converged...
  
  center of mass moved by:
     x:     6.2556E-03     y:     2.7320E-02     z:    -4.4870E-02
  
  new geometry: 
                                   angstroms
  atom               x                 y                 z
  C1            1.3277751530     -0.0777638921      1.2213660196 
  C2            1.8396945468      1.0466417188      0.4850751797 
  C3            2.9812590794      1.4393986085      1.1788809417 
  C4            4.0456681662      0.5871652458      0.7130874517 
  C5            3.9811126456     -0.5990607459      1.3798386223 
  C6            2.3392272387     -1.1204975819      1.3626512553 
  C7            5.4264563510     -0.3799381966      2.0290295174 
  C8            6.5577098755     -0.1170663487      1.1915063565 
  C9            6.2396970742     -0.0769669563     -0.1762875448 
  C10           4.8715310080      0.2338981559     -0.4443340741 
  C11           4.5993179725     -0.1881543715     -1.8169542600 
  C12           3.4663334797     -0.3876735357     -2.5252142991 
  C13           3.5266861215     -0.7241954098     -3.9567618242 
  O14           2.4834879415     -0.7992227043     -4.6199233411 
  C15           4.8965316060     -0.9241820353     -4.6124226510 
  O16           4.9748366409     -1.1781902646     -5.8188699372 
  C17           6.0904666517     -0.8000756676     -3.7408413792 
  C18           5.8996155562     -0.4823871137     -2.4087890267 
  C19           6.9273464534     -0.3617270234     -1.4431974924 
  C20           8.2447428785     -0.5438305308     -1.8732143287 
  C21           8.4675704196     -0.8415622726     -3.2394599602 
  C22           7.4107405498     -0.9751939390     -4.1641921538 
  H23           0.4760224349      0.0324447204      1.9029449219 
  H24           2.0087631783      0.8338280806     -0.5820997831 
  H25           2.8740744717      1.4701479980      2.2896357810 
  H26           2.1333607416     -1.8009607914      0.4543858094 
  H27           5.4537176449      0.0554955429      3.0296357980 
  H28           7.5428481409      0.1155283279      1.5887369953 
  H29           2.4573404363     -0.2617598637     -2.1683124071 
  H30           9.1003088032     -0.4590596037     -1.2090767119 
  H31           9.4848864034     -0.9775141950     -3.5958709555 
  H32           7.6033410292     -1.2134473809     -5.2053761928 
   
  nuclear repulsion energy.......    1595.962838130 hartrees
  -------------------------------------------------
 /  end of geometry optimization iteration   2   /
 -------------------------------------------------
   
  Peak memory usage:   4726 Mb
  
  end of program geopt
   
 Time(geopt)  user:        8.8  user+sys:        8.8  wallclock:        0.8
  
  start of program onee
  
  smallest eigenvalue of S:    3.676E-04
  number of canonical orbitals.....          216
  Peak memory usage:   3812 Mb
  
  end of program onee
   
 Time(onee)  user:        3.5  user+sys:        3.5  wallclock:        0.8
  
  start of program probe
  
  Peak memory usage:   3726 Mb
  
  end of program probe
   
 Time(probe)  user:        2.6  user+sys:        2.6  wallclock:        0.7
  
  start of program grid
  
   grid     grid set  grid #  grid sym
  ------    --------  ------  --------
  coarse        0        0        1
  medium        2        1        1
  fine          0        0        1
  ultrafine     4        2        1
  charge       -1        3        1
  gradient      4        2        1
  density       0        0        1
  DFT-fine    -11        4        1
  DFT-med.    -10        5        1
  DFT-grad    -12        6        1
  DFT-der2      0        0        1
  DFT-cphf      0        0        1
  LMP2-enrg     4        2        1
  LMP2-grad     2        1        1
  DFT-cphf2     0        0        1
  PBF-dens      0        0        1
  plotting      0        0        1
  Rel-grad    -17        0        1
  
  number of gridpoints: 
     atom        C1       C2       C3       C4       C5       C6       C7
  grid # 1       94       97       97       98      102      101       96
  grid # 2      337      351      354      350      389      378      353
  grid # 3       81      303      339       88      199      343      242
  grid # 4     4304     4304     4304     4304     4304     4304     4304
  grid # 5     1192     1192     1192     1192     1192     1192     1192
  grid # 6     5226     5226     5226     5226     5226     5226     5226
   
  number of gridpoints: 
     atom        C8       C9      C10      C11      C12      C13      O14
  grid # 1       95      100      100      100       95       99      123
  grid # 2      335      372      371      372      337      364      508
  grid # 3      194      218      194      220      186      253     1456
  grid # 4     4304     4304     4304     4304     4304     4304     4304
  grid # 5     1192     1192     1192     1192     1192     1192     1192
  grid # 6     5226     5226     5226     5226     5226     5226     5226
   
  number of gridpoints: 
     atom       C15      O16      C17      C18      C19      C20      C21
  grid # 1       99      123      102       96      100       97       97
  grid # 2      360      504      365      360      359      337      340
  grid # 3      254     1336      257      244      257      232      231
  grid # 4     4304     4304     4304     4304     4304     4304     4304
  grid # 5     1192     1192     1192     1192     1192     1192     1192
  grid # 6     5226     5226     5226     5226     5226     5226     5226
   
  number of gridpoints: 
     atom       C22      H23      H24      H25      H26      H27      H28
  grid # 1       97      117      108      113      114      115      118
  grid # 2      336      461      420      448      459      452      456
  grid # 3      229     1460      630     1016     1132     1227     1281
  grid # 4     4304     4304     4304     4304     4304     4304     4304
  grid # 5     1192     1192     1192     1192     1192     1192     1192
  grid # 6     5226     5226     5226     5226     5226     5226     5226
   
  number of gridpoints: 
     atom       H29      H30      H31      H32    total
  grid # 1      108      118      118      118     3355
  grid # 2      422      450      451      444    12595
  grid # 3      573     1224     1322     1160    18381
  grid # 4     4304     4304     4304     4304   137728
  grid # 5     1192     1192     1192     1192    38144
  grid # 6     5226     5226     5226     5226   167232
   
  Peak memory usage:   3770 Mb
  
  end of program grid
   
 Time(grid)  user:       18.4  user+sys:       18.4  wallclock:        2.0
  
  start of program rwr
  
  Peak memory usage:   3726 Mb
  
  end of program rwr
   
 Time(rwr)  user:       44.2  user+sys:       44.2  wallclock:        4.2
  
  start of program scf
  
 Energy computed with NOPS off.
  
       i  u  d  i  g                   
       t  p  i  c  r                                 RMS    maximum
       e  d  i  u  i                       energy  density   DIIS  
       r  t  s  t  d       total energy    change  change    error 
  
etot    1  N  N  2  U    -917.58123668429           1.4E-03  1.0E-02
etot    2  Y  Y  6  M    -917.60929880964  2.8E-02  7.5E-04  3.9E-03
etot    3  N  Y  2  U    -917.60374268800 -5.6E-03  5.7E-04  9.4E-03
etot    4  N  Y  2  U    -917.61169710398  8.0E-03  1.8E-04  3.2E-03
etot    5  Y  Y  6  M    -917.61202033301  3.2E-04  1.1E-04  2.9E-03
etot    6  Y  Y  6  M    -917.61219947876  1.8E-04  6.1E-05  8.7E-04
etot    7  Y  Y  6  M    -917.61226952580  7.0E-05  4.1E-05  5.7E-04
etot    8  N  Y  2  U    -917.61231190254  4.2E-05  4.5E-05  3.8E-04
etot    9  N  Y  2  U    -917.61234197780  3.0E-05  2.7E-05  3.9E-04
etot   10  N  Y  2  U    -917.61236062301  1.9E-05  5.6E-05  4.4E-04
etot   11  Y  Y  6  M    -917.61232606081 -3.5E-05  8.9E-05  3.7E-04
etot   12  Y  Y  6  M    -917.61228953092 -3.7E-05  7.9E-05  3.0E-04
etot   13  Y  Y  6  M    -917.61227530929 -1.4E-05  4.6E-05  2.0E-04
etot   14  N  Y  2  U    -917.61226798161 -7.3E-06  3.5E-05  1.7E-04
etot   15  N  Y  2  U    -917.61226993046  1.9E-06  3.2E-05  1.5E-04
etot   16  N  Y  2  U    -917.61227216688  2.2E-06  1.5E-05  9.2E-05
etot   17  N  Y  2  U    -917.61227299915  8.3E-07  2.5E-05  7.8E-05
etot   18  N  Y  2  U    -917.61227395035  9.5E-07  2.2E-05  8.7E-05
etot   19  N  Y  2  U    -917.61227414305  1.9E-07  9.0E-06  5.2E-05
etot   20  N  Y  2  U    -917.61227444839  3.1E-07  3.8E-06  1.7E-05
etot   21  N  N  2  U    -917.61227450116  5.3E-08  0.0E+00  0.0E+00
  
  
 Energy components, in hartrees:
   (A)  Nuclear repulsion............    1595.96283813001
   (E)  Total one-electron terms.....   -4390.95778426275
   (I)  Total two-electron terms.....    1877.38267163158
   (L)  Electronic energy............   -2513.57511263117  (E+I)
   (N)  Total energy.................    -917.61227450116  (A+L)
   (O)  Gas phase energy.............    -917.61227450116
  
                                 Total             Coulomb       Exchange+Corr.
 Total two-electron terms    1877.38267163158    2006.21426889708    -128.83159726551
   Hamiltonian  1........     962.91426663952    1008.76588969016     -45.85162305064
   Hamiltonian  2........     951.94965697201     997.44837920692     -45.49872223491
  
 SCFE: SCF energy: UDFT(b3lyp)      -917.61227450116 hartrees   iterations:  21
  
 
 Alpha HOMO energy:    -0.35907
 Alpha LUMO energy:    -0.31013
 
  Alpha Orbital energies (hartrees): 
   -19.28069   -19.27718   -10.45633   -10.44189   -10.43232   -10.42158
   -10.41786   -10.41433   -10.41183   -10.41125   -10.40953   -10.39886
   -10.38794   -10.38083   -10.37809   -10.35929   -10.35616   -10.35206
   -10.34614   -10.34165   -10.33669   -10.33359    -1.19721    -1.17024
    -1.12428    -1.07010    -1.03353    -0.97998    -0.97499    -0.94327
    -0.92519    -0.89854    -0.88774    -0.84554    -0.82172    -0.79076
    -0.78276    -0.76309    -0.75141    -0.74155    -0.72080    -0.69255
    -0.67468    -0.65506    -0.65092    -0.64145    -0.63975    -0.62113
    -0.60735    -0.60287    -0.60025    -0.59147    -0.58653    -0.57746
    -0.57116    -0.56285    -0.55354    -0.54802    -0.53705    -0.53506
    -0.51024    -0.50229    -0.50052    -0.48587    -0.46050    -0.45055
    -0.42762    -0.41032    -0.40657    -0.38944    -0.37686    -0.36754
    -0.35907    -0.31013    -0.26674    -0.25009    -0.22678    -0.20544
    -0.17322    -0.13804    -0.13181    -0.08899    -0.08563
 
 
 Beta HOMO energy:    -0.36701
 Beta LUMO energy:    -0.30142
 
  Beta Orbital energies (hartrees): 
   -19.28023   -19.27722   -10.45743   -10.43858   -10.42933   -10.41927
   -10.41462   -10.41259   -10.41140   -10.40952   -10.40936   -10.39946
   -10.38819   -10.38100   -10.37645   -10.35945   -10.35561   -10.35218
   -10.34620   -10.34160   -10.33695   -10.33364    -1.19684    -1.16989
    -1.12066    -1.06883    -1.03148    -0.98011    -0.97239    -0.93848
    -0.91502    -0.89828    -0.88826    -0.84527    -0.81582    -0.78843
    -0.78236    -0.75519    -0.75057    -0.73991    -0.71821    -0.69093
    -0.67242    -0.65480    -0.64950    -0.63939    -0.63558    -0.61680
    -0.60605    -0.59932    -0.59814    -0.58913    -0.58516    -0.57763
    -0.56734    -0.56205    -0.55310    -0.54743    -0.53719    -0.53481
    -0.50905    -0.50219    -0.50004    -0.48323    -0.45900    -0.44198
    -0.41707    -0.40993    -0.40091    -0.38113    -0.37003    -0.36701
    -0.30142    -0.27713    -0.24884    -0.23841    -0.22432    -0.20365
    -0.17220    -0.13787    -0.12146    -0.08956
 
  
  
    Unrestricted Spin Properties ...
    Sz*(Sz+1)      0.750
    <S**2> ...     0.857
  
  
  Peak memory usage:   5783 Mb
  
  end of program scf
   
 Time(scf)  user:      345.4  user+sys:      345.4  wallclock:       26.0
  
  start of program der1a
  
  Peak memory usage:   3824 Mb
  
  end of program der1a
   
 Time(der1a)  user:        5.0  user+sys:        5.0  wallclock:        0.8
  
  start of program rwr
  
  Peak memory usage:   3733 Mb
  
  end of program rwr
   
 Time(rwr)  user:       31.5  user+sys:       31.5  wallclock:        3.9
  
  start of program der1b
  
   
  forces (hartrees/bohr) : total     
   
 atom  label           x              y              z
 ---- --------   -------------  -------------  -------------
    1 C1         -6.829552E-04   1.920311E-02   4.732937E-02
    2 C2          1.632299E-02  -1.451125E-02  -5.136821E-02
    3 C3         -1.174884E-02   3.457062E-02   3.589298E-02
    4 C4         -1.396431E-02   4.111205E-02  -1.775467E-02
    5 C5         -8.389655E-03  -2.800713E-02   1.249675E-02
    6 C6          9.258570E-03  -3.800517E-02  -4.739290E-02
    7 C7          1.772037E-02   1.359229E-02  -1.610686E-02
    8 C8         -2.734802E-02  -1.893249E-02   3.502449E-02
    9 C9         -3.466108E-03   8.490833E-03  -1.927738E-02
   10 C10         1.642034E-02  -1.306600E-02  -8.188330E-03
   11 C11        -1.080204E-02   4.464383E-03   3.798302E-03
   12 C12        -5.017391E-03   3.672999E-03  -7.409932E-03
   13 C13         2.357661E-03   2.169605E-05   4.577380E-03
   14 O14        -3.549063E-03  -1.996348E-03  -4.960455E-03
   15 C15         4.926519E-03  -2.251188E-04  -2.382517E-04
   16 O16         1.776439E-04  -1.129262E-03  -4.795916E-03
   17 C17        -2.560974E-03   6.872236E-04   1.545583E-03
   18 C18        -4.119515E-03   6.658033E-03   2.610651E-03
   19 C19        -5.597533E-03  -1.312958E-03  -8.905305E-04
   20 C20         8.404993E-03  -3.692125E-03  -5.892132E-03
   21 C21        -1.410977E-03   3.756469E-04   1.428541E-03
   22 C22         1.000278E-02  -1.701899E-03  -9.540659E-04
   23 H23         4.718430E-03  -4.429949E-03   3.895091E-03
   24 H24        -6.089891E-03   9.605243E-03   1.911605E-03
   25 H25         7.085560E-03   8.845704E-03  -1.684126E-02
   26 H26         2.188000E-02  -8.969978E-03   3.642774E-02
   27 H27        -5.599444E-03  -1.419196E-02   4.121589E-03
   28 H28        -3.674677E-03  -4.379460E-03   3.242812E-03
   29 H29        -3.181063E-03   2.054132E-03   4.466423E-03
   30 H30        -2.405396E-03  -1.667258E-04   4.759276E-04
   31 H31        -1.299266E-03   5.611314E-04   2.021051E-03
   32 H32         1.251714E-03  -7.892141E-05   8.598303E-04
 -------------   -------------  -------------  -------------
     total       -3.795517E-04  -8.816450E-04   5.522285E-05
   
  Peak memory usage:   5739 Mb
  
  end of program der1b
   
 Time(der1b)  user:       47.9  user+sys:       47.9  wallclock:        4.1
  
  start of program geopt
  
 ----------------------------------------------------------------------------
  Geometry optimization step  3
  Total energy:      -917.61227450116 hartrees
 ----------------------------------------------------------------------------
  
  
  Level shifts adjusted to satisfy step-size constraints
   Step size:    0.3001149
   Cos(theta):   0.9778333
   Final level shift:  -4.7474345E-01
  
  energy change:          -6.6071E-02 .  (  5.0000E-05 )
  gradient maximum:        6.9548E-02 .  (  4.5000E-04 )
  gradient rms:            1.7052E-02 .  (  3.0000E-04 )
  displacement maximum:    1.1360E-01 .  (  1.8000E-03 )
  displacement rms:        2.7054E-02 .  (  1.2000E-03 )
  
  predicted energy change:  -4.9131E-02
  step size:     0.30005
  trust radius:  0.30000
  
  molecular structure not yet converged...
  
  center of mass moved by:
     x:     3.1165E-03     y:     3.1037E-02     z:    -4.3051E-02
  
  new geometry: 
                                   angstroms
  atom               x                 y                 z
  C1            1.3962703909     -0.1536621776      1.4079045064 
  C2            1.7814743508      0.9488301691      0.5329073313 
  C3            2.9236001882      1.4847774836      1.1475416273 
  C4            3.9966236838      0.6390983429      0.6760673946 
  C5            3.9941119228     -0.5608157366      1.3832968875 
  C6            2.4445432025     -1.1763726745      1.5307859465 
  C7            5.4208967032     -0.3893080382      2.0306942730 
  C8            6.5131466865     -0.1427249962      1.1933198532 
  C9            6.1847786743     -0.0648204557     -0.1910243439 
  C10           4.8273639893      0.2776216955     -0.4856203988 
  C11           4.5632016783     -0.1425429341     -1.8668831394 
  C12           3.4435390277     -0.3155105815     -2.6104025045 
  C13           3.5519561333     -0.6645678409     -4.0402916115 
  O14           2.5356637125     -0.7236292782     -4.7504714474 
  C15           4.9397418905     -0.9056063011     -4.6553163123 
  O16           5.0457922150     -1.1704739773     -5.8597579366 
  C17           6.1075559855     -0.8053774912     -3.7474608124 
  C18           5.8766610235     -0.4724109728     -2.4235913643 
  C19           6.8845983121     -0.3768695339     -1.4373181035 
  C20           8.2125351779     -0.6004819420     -1.8203647809 
  C21           8.4717537575     -0.9144150567     -3.1714336787 
  C22           7.4420875741     -1.0234127020     -4.1261421090 
  H23           0.5877132445     -0.0570301863      2.1393554670 
  H24           1.8373209194      0.6986905396     -0.5337346840 
  H25           2.8755625098      1.6282643488      2.2400499027 
  H26           2.2439522484     -2.0070540660      0.7931140534 
  H27           5.4400169335     -0.0155165791      3.0544137660 
  H28           7.5052558790      0.0561767323      1.5855685003 
  H29           2.4290157811     -0.1561284735     -2.2739791430 
  H30           9.0411173907     -0.5354079306     -1.1224684727 
  H31           9.4962343363     -1.0814817778     -3.4877371962 
  H32           7.6656090506     -1.2792905462     -5.1564407557 
   
  nuclear repulsion energy.......    1589.974686482 hartrees
  -------------------------------------------------
 /  end of geometry optimization iteration   3   /
 -------------------------------------------------
   
  Peak memory usage:   4726 Mb
  
  end of program geopt
   
 Time(geopt)  user:        8.5  user+sys:        8.5  wallclock:        0.8
  
  start of program onee
  
  smallest eigenvalue of S:    3.725E-04
  number of canonical orbitals.....          216
  Peak memory usage:   3812 Mb
  
  end of program onee
   
 Time(onee)  user:        4.3  user+sys:        4.3  wallclock:        0.8
  
  start of program probe
  
  Peak memory usage:   3727 Mb
  
  end of program probe
   
 Time(probe)  user:        2.9  user+sys:        2.9  wallclock:        0.8
  
  start of program grid
  
   grid     grid set  grid #  grid sym
  ------    --------  ------  --------
  coarse        0        0        1
  medium        2        1        1
  fine          0        0        1
  ultrafine     4        2        1
  charge       -1        3        1
  gradient      4        2        1
  density       0        0        1
  DFT-fine    -11        4        1
  DFT-med.    -10        5        1
  DFT-grad    -12        6        1
  DFT-der2      0        0        1
  DFT-cphf      0        0        1
  LMP2-enrg     4        2        1
  LMP2-grad     2        1        1
  DFT-cphf2     0        0        1
  PBF-dens      0        0        1
  plotting      0        0        1
  Rel-grad    -17        0        1
  
  number of gridpoints: 
     atom        C1       C2       C3       C4       C5       C6       C7
  grid # 1       97       97       98      101      102       99       96
  grid # 2      343      353      356      364      390      374      349
  grid # 3       81      283      335       94      137      295      229
  grid # 4     4304     4304     4304     4304     4304     4304     4304
  grid # 5     1192     1192     1192     1192     1192     1192     1192
  grid # 6     5226     5226     5226     5226     5226     5226     5226
   
  number of gridpoints: 
     atom        C8       C9      C10      C11      C12      C13      O14
  grid # 1       95      101      103      100       95       99      123
  grid # 2      335      371      377      372      337      364      511
  grid # 3      194      217      208      224      198      254     1465
  grid # 4     4304     4304     4304     4304     4304     4304     4304
  grid # 5     1192     1192     1192     1192     1192     1192     1192
  grid # 6     5226     5226     5226     5226     5226     5226     5226
   
  number of gridpoints: 
     atom       C15      O16      C17      C18      C19      C20      C21
  grid # 1       99      123      100       99      100       97       97
  grid # 2      359      504      365      361      357      338      340
  grid # 3      256     1341      254      244      257      233      231
  grid # 4     4304     4304     4304     4304     4304     4304     4304
  grid # 5     1192     1192     1192     1192     1192     1192     1192
  grid # 6     5226     5226     5226     5226     5226     5226     5226
   
  number of gridpoints: 
     atom       C22      H23      H24      H25      H26      H27      H28
  grid # 1       97      117      107      113      116      116      117
  grid # 2      336      461      421      445      459      454      456
  grid # 3      232     1452      667     1069     1273     1241     1257
  grid # 4     4304     4304     4304     4304     4304     4304     4304
  grid # 5     1192     1192     1192     1192     1192     1192     1192
  grid # 6     5226     5226     5226     5226     5226     5226     5226
   
  number of gridpoints: 
     atom       H29      H30      H31      H32    total
  grid # 1      110      118      118      118     3368
  grid # 2      428      449      451      444    12624
  grid # 3      669     1205     1324     1166    18585
  grid # 4     4304     4304     4304     4304   137728
  grid # 5     1192     1192     1192     1192    38144
  grid # 6     5226     5226     5226     5226   167232
   
  Peak memory usage:   3770 Mb
  
  end of program grid
   
 Time(grid)  user:       15.5  user+sys:       15.5  wallclock:        1.8
  
  start of program rwr
  
  Peak memory usage:   3727 Mb
  
  end of program rwr
   
 Time(rwr)  user:       46.3  user+sys:       46.3  wallclock:        4.3
  
  start of program scf
  
 Energy computed with NOPS off.
  
       i  u  d  i  g                   
       t  p  i  c  r                                 RMS    maximum
       e  d  i  u  i                       energy  density   DIIS  
       r  t  s  t  d       total energy    change  change    error 
  
etot    1  N  N  2  U    -917.62876337406           1.3E-03  8.9E-03
etot    2  Y  Y  6  M    -917.65863680691  3.0E-02  7.4E-04  4.0E-03
etot    3  N  Y  2  U    -917.65290054570 -5.7E-03  5.4E-04  1.1E-02
etot    4  N  Y  2  U    -917.66134724420  8.4E-03  1.4E-04  1.7E-03
etot    5  Y  Y  6  M    -917.66145180403  1.0E-04  1.2E-04  2.2E-03
etot    6  Y  Y  6  M    -917.66153680229  8.5E-05  5.3E-05  1.6E-03
etot    7  N  Y  2  U    -917.66164251125  1.1E-04  3.9E-05  3.1E-04
etot    8  N  Y  2  U    -917.66166212116  2.0E-05  4.3E-05  4.3E-04
etot    9  N  Y  2  U    -917.66168604395  2.4E-05  4.0E-05  3.7E-04
etot   10  N  Y  2  U    -917.66170761697  2.2E-05  1.1E-05  3.9E-04
etot   11  N  Y  2  U    -917.66171369349  6.1E-06  2.5E-06  4.0E-04
etot   12  N  N  2  U    -917.66171502718  1.3E-06  0.0E+00  0.0E+00
  
  
 Energy components, in hartrees:
   (A)  Nuclear repulsion............    1589.97468648196
   (E)  Total one-electron terms.....   -4379.31062459180
   (I)  Total two-electron terms.....    1871.67422308266
   (L)  Electronic energy............   -2507.63640150913  (E+I)
   (N)  Total energy.................    -917.66171502718  (A+L)
   (O)  Gas phase energy.............    -917.66171502718
  
                                 Total             Coulomb       Exchange+Corr.
 Total two-electron terms    1871.67422308266    2000.48524012272    -128.81101704005
   Hamiltonian  1........     960.03662587406    1005.87997284833     -45.84334697427
   Hamiltonian  2........     949.11288593518     994.60526727438     -45.49238133920
  
 SCFE: SCF energy: UDFT(b3lyp)      -917.66171502718 hartrees   iterations:  12
  
 
 Alpha HOMO energy:    -0.35362
 Alpha LUMO energy:    -0.30638
 
  Alpha Orbital energies (hartrees): 
   -19.27863   -19.27547   -10.45865   -10.44332   -10.42872   -10.41909
   -10.41511   -10.41483   -10.41037   -10.40832   -10.40649   -10.39633
   -10.38910   -10.38107   -10.37244   -10.35716   -10.35614   -10.35177
   -10.34521   -10.34143   -10.33665   -10.33211    -1.19370    -1.16650
    -1.11581    -1.06569    -1.02671    -0.97760    -0.96765    -0.94429
    -0.92501    -0.89759    -0.88505    -0.84387    -0.81794    -0.78907
    -0.78071    -0.76476    -0.74859    -0.73857    -0.71969    -0.68975
    -0.67231    -0.65370    -0.64726    -0.64144    -0.63918    -0.62657
    -0.60594    -0.60136    -0.59867    -0.59144    -0.58801    -0.57692
    -0.57534    -0.56057    -0.55232    -0.54573    -0.53548    -0.53333
    -0.50890    -0.50129    -0.49897    -0.48499    -0.45839    -0.44982
    -0.43197    -0.40776    -0.40545    -0.38719    -0.37505    -0.36581
    -0.35362    -0.30638    -0.26226    -0.25155    -0.23597    -0.20426
    -0.16911    -0.13621    -0.09838    -0.08755    -0.08292
 
 
 Beta HOMO energy:    -0.36549
 Beta LUMO energy:    -0.29683
 
  Beta Orbital energies (hartrees): 
   -19.27830   -19.27551   -10.46071   -10.43885   -10.42489   -10.41912
   -10.41634   -10.41049   -10.40830   -10.40749   -10.40366   -10.39725
   -10.38907   -10.38115   -10.37112   -10.35737   -10.35573   -10.35183
   -10.34522   -10.34141   -10.33684   -10.33217    -1.19345    -1.16625
    -1.11200    -1.06457    -1.02485    -0.97791    -0.96492    -0.93771
    -0.91597    -0.89738    -0.88554    -0.84355    -0.81250    -0.78694
    -0.78019    -0.75614    -0.74810    -0.73666    -0.71702    -0.68827
    -0.66983    -0.65342    -0.64608    -0.64091    -0.63416    -0.62187
    -0.60527    -0.60015    -0.59288    -0.58874    -0.58686    -0.57648
    -0.57274    -0.55961    -0.55210    -0.54515    -0.53548    -0.53324
    -0.50760    -0.50135    -0.49839    -0.48244    -0.45741    -0.43875
    -0.42090    -0.40751    -0.40302    -0.38187    -0.36743    -0.36549
    -0.29683    -0.27319    -0.24758    -0.23663    -0.23044    -0.20287
    -0.16806    -0.13628    -0.09171    -0.08794
 
  
  
    Unrestricted Spin Properties ...
    Sz*(Sz+1)      0.750
    <S**2> ...     0.867
  
  
  Peak memory usage:   5783 Mb
  
  end of program scf
   
 Time(scf)  user:      214.0  user+sys:      214.0  wallclock:       16.3
  
  start of program der1a
  
  Peak memory usage:   3825 Mb
  
  end of program der1a
   
 Time(der1a)  user:        3.2  user+sys:        3.2  wallclock:        0.7
  
  start of program rwr
  
  Peak memory usage:   3732 Mb
  
  end of program rwr
   
 Time(rwr)  user:       34.5  user+sys:       34.5  wallclock:        4.3
  
  start of program der1b
  
   
  forces (hartrees/bohr) : total     
   
 atom  label           x              y              z
 ---- --------   -------------  -------------  -------------
    1 C1          4.107768E-03   1.948846E-02   2.694971E-02
    2 C2          8.607506E-03  -2.212428E-02  -3.194568E-02
    3 C3         -1.405201E-02   1.961044E-02   1.918603E-02
    4 C4         -2.011733E-02   1.795053E-02  -1.849151E-02
    5 C5         -1.750039E-02  -9.891497E-03   2.181354E-02
    6 C6          2.454739E-02  -1.509343E-02  -3.945074E-02
    7 C7          8.928848E-03   3.259641E-03  -1.585579E-02
    8 C8         -1.831393E-02  -1.197767E-02   2.296932E-02
    9 C9         -4.571272E-03   3.933115E-03  -1.238237E-02
   10 C10         1.607888E-02  -9.780509E-03   8.636032E-04
   11 C11        -6.522665E-03   6.436321E-03   2.615115E-03
   12 C12        -8.672531E-04   4.361163E-03  -4.558771E-03
   13 C13        -1.102287E-03  -7.774683E-04   1.262193E-03
   14 O14        -8.843443E-04  -1.055324E-03  -8.390195E-04
   15 C15         4.573355E-03  -3.712535E-04  -1.315546E-03
   16 O16         5.671534E-05  -3.900833E-04  -6.454576E-04
   17 C17        -1.463709E-05   1.759401E-04   9.413506E-04
   18 C18        -3.320363E-03   5.580788E-03  -2.110499E-03
   19 C19        -3.946539E-03  -1.220338E-03   4.731435E-04
   20 C20         4.330366E-03  -3.145195E-03  -3.064905E-03
   21 C21        -9.544878E-04   4.451947E-04   8.527131E-04
   22 C22         4.943446E-03  -1.513035E-03  -3.610177E-04
   23 H23         5.539960E-03  -9.998891E-04   3.999696E-03
   24 H24        -1.403081E-03   7.481045E-03   1.926812E-03
   25 H25         4.144012E-03   5.649942E-03  -1.031242E-02
   26 H26         1.586395E-02  -3.234969E-03   2.845964E-02
   27 H27        -2.865654E-03  -1.450576E-02   3.823668E-03
   28 H28        -1.858605E-03  -1.396232E-03   1.295536E-03
   29 H29        -1.716337E-03   1.883411E-03   2.215957E-03
   30 H30        -1.598868E-03  -4.273464E-05   5.186334E-04
   31 H31        -7.541699E-04   2.655160E-04   8.256213E-04
   32 H32         3.647708E-04   6.600808E-05   3.975882E-04
 -------------   -------------  -------------  -------------
     total       -2.772556E-04  -9.321564E-04   5.614169E-05
   
  Peak memory usage:   5739 Mb
  
  end of program der1b
   
 Time(der1b)  user:       44.7  user+sys:       44.7  wallclock:        3.7
  
  start of program geopt
  
 ----------------------------------------------------------------------------
  Geometry optimization step  4
  Total energy:      -917.66171502718 hartrees
 ----------------------------------------------------------------------------
  
  
  Level shifts adjusted to satisfy step-size constraints
   Step size:    0.3002083
   Cos(theta):   0.9869017
   Final level shift:  -3.9625369E-01
  
  energy change:          -4.9441E-02 .  (  5.0000E-05 )
  gradient maximum:        5.0897E-02 .  (  4.5000E-04 )
  gradient rms:            1.3008E-02 .  (  3.0000E-04 )
  displacement maximum:    1.1839E-01 .  (  1.8000E-03 )
  displacement rms:        2.7063E-02 .  (  1.2000E-03 )
  
  predicted energy change:  -3.9223E-02
  step size:     0.30014
  trust radius:  0.30000
  
  molecular structure not yet converged...
  
  center of mass moved by:
     x:    -1.0136E-03     y:     3.2725E-02     z:    -3.5055E-02
  
  new geometry: 
                                   angstroms
  atom               x                 y                 z
  C1            1.4782955966     -0.2298054414      1.5461539976 
  C2            1.7310956909      0.8176185305      0.5456950990 
  C3            2.8416942638      1.5030269698      1.0883083314 
  C4            3.9448292787      0.6812374189      0.6371779570 
  C5            4.0095418167     -0.5144665863      1.3964544070 
  C6            2.5804904674     -1.2043092934      1.6756589740 
  C7            5.4176002471     -0.3994060863      2.0403677540 
  C8            6.4773205071     -0.1706243739      1.1972615114 
  C9            6.1359474215     -0.0551627973     -0.1992437286 
  C10           4.7910750748      0.3193882403     -0.5181323855 
  C11           4.5366855076     -0.0932908713     -1.9069348032 
  C12           3.4302054296     -0.2328282345     -2.6807992315 
  C13           3.5734624014     -0.5937515011     -4.1077037937 
  O14           2.5788746829     -0.6289800968     -4.8518931736 
  C15           4.9733379183     -0.8815071772     -4.6868314594 
  O16           5.1027827108     -1.1575074639     -5.8874757016 
  C17           6.1176393811     -0.8105739640     -3.7490549947 
  C18           5.8555525535     -0.4628979255     -2.4341579054 
  C19           6.8440081048     -0.3953788226     -1.4279208933 
  C20           8.1765059310     -0.6636231335     -1.7703942958 
  C21           8.4641363228     -0.9934809993     -3.1084633539 
  C22           7.4588249611     -1.0746540701     -4.0891253376 
  H23           0.7073159476     -0.1347115367      2.3151230644 
  H24           1.7142539014      0.5102800242     -0.5034197547 
  H25           2.8181526432      1.7610842010      2.1512668886 
  H26           2.4306565860     -2.1571921160      1.1262372863 
  H27           5.4367594844     -0.0924817296      3.0846381751 
  H28           7.4793877539     -0.0056066765      1.5761600998 
  H29           2.4134275054     -0.0352576943     -2.3647133692 
  H30           8.9811477167     -0.6199746218     -1.0446044324 
  H31           9.4913504519     -1.1944142300     -3.3914664847 
  H32           7.7044985606     -1.3463590839     -5.1099748227 
   
  nuclear repulsion energy.......    1587.259475977 hartrees
  -------------------------------------------------
 /  end of geometry optimization iteration   4   /
 -------------------------------------------------
   
  Peak memory usage:   4726 Mb
  
  end of program geopt
   
 Time(geopt)  user:        9.3  user+sys:        9.3  wallclock:        0.8
  
  start of program onee
  
  smallest eigenvalue of S:    3.752E-04
  number of canonical orbitals.....          216
  Peak memory usage:   3812 Mb
  
  end of program onee
   
 Time(onee)  user:        3.5  user+sys:        3.5  wallclock:        0.9
  
  start of program probe
  
  Peak memory usage:   3726 Mb
  
  end of program probe
   
 Time(probe)  user:        2.4  user+sys:        2.4  wallclock:        0.7
  
  start of program grid
  
   grid     grid set  grid #  grid sym
  ------    --------  ------  --------
  coarse        0        0        1
  medium        2        1        1
  fine          0        0        1
  ultrafine     4        2        1
  charge       -1        3        1
  gradient      4        2        1
  density       0        0        1
  DFT-fine    -11        4        1
  DFT-med.    -10        5        1
  DFT-grad    -12        6        1
  DFT-der2      0        0        1
  DFT-cphf      0        0        1
  LMP2-enrg     4        2        1
  LMP2-grad     2        1        1
  DFT-cphf2     0        0        1
  PBF-dens      0        0        1
  plotting      0        0        1
  Rel-grad    -17        0        1
  
  number of gridpoints: 
     atom        C1       C2       C3       C4       C5       C6       C7
  grid # 1       97       98       97      100      102      100       96
  grid # 2      341      352      350      362      375      369      344
  grid # 3       85      268      332      116       91      246      219
  grid # 4     4304     4304     4304     4304     4304     4304     4304
  grid # 5     1192     1192     1192     1192     1192     1192     1192
  grid # 6     5226     5226     5226     5226     5226     5226     5226
   
  number of gridpoints: 
     atom        C8       C9      C10      C11      C12      C13      O14
  grid # 1       96      101      101      100       95       99      123
  grid # 2      339      374      372      372      340      365      511
  grid # 3      193      218      216      230      202      254     1464
  grid # 4     4304     4304     4304     4304     4304     4304     4304
  grid # 5     1192     1192     1192     1192     1192     1192     1192
  grid # 6     5226     5226     5226     5226     5226     5226     5226
   
  number of gridpoints: 
     atom       C15      O16      C17      C18      C19      C20      C21
  grid # 1       99      123       98       99      100       97       97
  grid # 2      359      504      368      360      356      338      340
  grid # 3      256     1343      251      242      257      234      232
  grid # 4     4304     4304     4304     4304     4304     4304     4304
  grid # 5     1192     1192     1192     1192     1192     1192     1192
  grid # 6     5226     5226     5226     5226     5226     5226     5226
   
  number of gridpoints: 
     atom       C22      H23      H24      H25      H26      H27      H28
  grid # 1       97      117      110      113      117      117      117
  grid # 2      337      461      430      447      458      456      455
  grid # 3      232     1442      695     1127     1362     1268     1228
  grid # 4     4304     4304     4304     4304     4304     4304     4304
  grid # 5     1192     1192     1192     1192     1192     1192     1192
  grid # 6     5226     5226     5226     5226     5226     5226     5226
   
  number of gridpoints: 
     atom       H29      H30      H31      H32    total
  grid # 1      112      118      118      118     3372
  grid # 2      426      449      451      444    12605
  grid # 3      734     1181     1324     1167    18709
  grid # 4     4304     4304     4304     4304   137728
  grid # 5     1192     1192     1192     1192    38144
  grid # 6     5226     5226     5226     5226   167232
   
  Peak memory usage:   3770 Mb
  
  end of program grid
   
 Time(grid)  user:       17.2  user+sys:       17.2  wallclock:        2.0
  
  start of program rwr
  
  Peak memory usage:   3727 Mb
  
  end of program rwr
   
 Time(rwr)  user:       46.9  user+sys:       46.9  wallclock:        4.2
  
  start of program scf
  
 Energy computed with NOPS off.
  
       i  u  d  i  g                   
       t  p  i  c  r                                 RMS    maximum
       e  d  i  u  i                       energy  density   DIIS  
       r  t  s  t  d       total energy    change  change    error 
  
etot    1  N  N  2  U    -917.66736616947           1.3E-03  9.1E-03
etot    2  Y  Y  6  M    -917.69819020179  3.1E-02  7.2E-04  4.2E-03
etot    3  N  Y  2  U    -917.69341431738 -4.8E-03  5.1E-04  1.1E-02
etot    4  Y  Y  6  M    -917.70125407028  7.8E-03  1.2E-04  1.7E-03
etot    5  N  Y  2  U    -917.70143414150  1.8E-04  1.8E-04  2.9E-03
etot    6  Y  Y  6  M    -917.70166188569  2.3E-04  1.2E-04  1.8E-03
etot    7  Y  Y  6  M    -917.70193191407  2.7E-04  1.2E-04  1.3E-03
etot    8  Y  Y  6  M    -917.70212514571  1.9E-04  8.3E-05  1.3E-03
etot    9  Y  Y  6  M    -917.70225749560  1.3E-04  3.0E-04  1.3E-03
etot   10  N  Y  2  U    -917.70266912853  4.1E-04  2.3E-04  1.0E-03
etot   11  Y  Y  6  M    -917.70296974971  3.0E-04  2.3E-04  8.2E-04
etot   12  Y  Y  6  M    -917.70319625275  2.3E-04  2.1E-04  6.2E-04
etot   13  Y  Y  6  M    -917.70334930812  1.5E-04  7.6E-05  3.2E-04
etot   14  Y  Y  6  M    -917.70338935843  4.0E-05  1.1E-04  2.3E-04
etot   15  N  Y  2  U    -917.70340776321  1.8E-05  3.8E-05  2.0E-04
etot   16  N  Y  2  U    -917.70341529253  7.5E-06  3.6E-05  1.2E-04
etot   17  N  Y  2  U    -917.70342065892  5.4E-06  2.4E-05  9.4E-05
etot   18  N  Y  2  U    -917.70342352709  2.9E-06  4.7E-05  1.0E-04
etot   19  N  Y  2  U    -917.70342662230  3.1E-06  6.5E-06  6.7E-05
etot   20  N  Y  2  U    -917.70342713288  5.1E-07  1.1E-05  3.8E-05
etot   21  N  Y  2  U    -917.70342772158  5.9E-07  1.6E-05  2.2E-05
etot   22  N  Y  2  U    -917.70342805058  3.3E-07  3.8E-06  1.1E-05
etot   23  N  N  2  U    -917.70342808019  3.0E-08  0.0E+00  0.0E+00
  
  
 Energy components, in hartrees:
   (A)  Nuclear repulsion............    1587.25947597688
   (E)  Total one-electron terms.....   -4374.07512943511
   (I)  Total two-electron terms.....    1869.11222537804
   (L)  Electronic energy............   -2504.96290405706  (E+I)
   (N)  Total energy.................    -917.70342808019  (A+L)
   (O)  Gas phase energy.............    -917.70342808019
  
                                 Total             Coulomb       Exchange+Corr.
 Total two-electron terms    1869.11222537804    1997.93899712368    -128.82677174563
   Hamiltonian  1........     958.50375921088    1004.35181648855     -45.84805727767
   Hamiltonian  2........     948.08670520138     993.58718063513     -45.50047543375
  
 SCFE: SCF energy: UDFT(b3lyp)      -917.70342808019 hartrees   iterations:  23
  
 
 Alpha HOMO energy:    -0.35399
 Alpha LUMO energy:    -0.30080
 
  Alpha Orbital energies (hartrees): 
   -19.27971   -19.27659   -10.44935   -10.44592   -10.42155   -10.41327
   -10.41297   -10.41175   -10.40959   -10.39924   -10.39446   -10.39443
   -10.39230   -10.38137   -10.37028   -10.35864   -10.35846   -10.35378
   -10.34749   -10.34400   -10.33961   -10.33414    -1.19384    -1.16678
    -1.10764    -1.06325    -1.02084    -0.97863    -0.96120    -0.94464
    -0.92412    -0.89947    -0.88371    -0.84338    -0.81393    -0.78772
    -0.78096    -0.76194    -0.74834    -0.73645    -0.71970    -0.68731
    -0.67188    -0.65461    -0.64573    -0.64323    -0.63154    -0.62787
    -0.60686    -0.60313    -0.59561    -0.58983    -0.58657    -0.58004
    -0.57615    -0.55782    -0.55338    -0.54610    -0.53634    -0.53295
    -0.50934    -0.50323    -0.49987    -0.48579    -0.45900    -0.44985
    -0.43117    -0.40835    -0.40595    -0.38633    -0.37304    -0.36675
    -0.35399    -0.30080    -0.25606    -0.25098    -0.23697    -0.20368
    -0.16340    -0.13722    -0.08810    -0.08661    -0.06639
 
 
 Beta HOMO energy:    -0.36600
 Beta LUMO energy:    -0.28704
 
  Beta Orbital energies (hartrees): 
   -19.27912   -19.27652   -10.45186   -10.44202   -10.42229   -10.41496
   -10.41194   -10.40963   -10.40442   -10.39551   -10.39468   -10.39402
   -10.38860   -10.38156   -10.36939   -10.35847   -10.35793   -10.35442
   -10.34803   -10.34372   -10.34056   -10.33394    -1.19329    -1.16618
    -1.10491    -1.06266    -1.01932    -0.97925    -0.96047    -0.93472
    -0.91468    -0.89936    -0.88371    -0.84422    -0.81011    -0.78604
    -0.78036    -0.74964    -0.74865    -0.73447    -0.71755    -0.68571
    -0.66911    -0.65463    -0.64531    -0.64243    -0.62645    -0.62268
    -0.60679    -0.60155    -0.59014    -0.58673    -0.58385    -0.57902
    -0.57528    -0.55690    -0.55344    -0.54585    -0.53635    -0.53346
    -0.50902    -0.50356    -0.49964    -0.48414    -0.45908    -0.44054
    -0.42015    -0.40807    -0.40666    -0.38445    -0.36896    -0.36600
    -0.28704    -0.26018    -0.24843    -0.24184    -0.21249    -0.20349
    -0.16548    -0.13817    -0.09041    -0.08853
 
  
  
    Unrestricted Spin Properties ...
    Sz*(Sz+1)      0.750
    <S**2> ...     1.038
  
  
  Peak memory usage:   5783 Mb
  
  end of program scf
   
 Time(scf)  user:      344.3  user+sys:      344.3  wallclock:       25.7
  
  start of program der1a
  
  Peak memory usage:   3824 Mb
  
  end of program der1a
   
 Time(der1a)  user:        4.5  user+sys:        4.5  wallclock:        0.8
  
  start of program rwr
  
  Peak memory usage:   3731 Mb
  
  end of program rwr
   
 Time(rwr)  user:       36.8  user+sys:       36.8  wallclock:        4.1
  
  start of program der1b
  
   
  forces (hartrees/bohr) : total     
   
 atom  label           x              y              z
 ---- --------   -------------  -------------  -------------
    1 C1         -1.592272E-02   7.764752E-03   1.074886E-02
    2 C2          1.632725E-02  -1.983593E-02  -1.752525E-02
    3 C3         -7.247504E-03   1.076356E-02   5.345503E-03
    4 C4         -2.723862E-02   1.022389E-02  -3.160206E-02
    5 C5         -2.649231E-02  -1.730230E-02   5.805259E-02
    6 C6          5.419398E-02   1.479216E-02  -3.872263E-02
    7 C7          3.198702E-04  -5.647673E-03  -1.680906E-02
    8 C8         -8.691176E-03  -3.180406E-03   1.556891E-02
    9 C9         -6.678148E-03  -1.817040E-03  -8.799460E-03
   10 C10         6.395606E-03  -6.759930E-03   2.930258E-03
   11 C11        -9.739244E-04   1.078064E-02   1.091998E-03
   12 C12         6.858939E-04   4.591044E-03  -2.833092E-03
   13 C13        -2.645137E-03  -1.279897E-03  -6.355815E-04
   14 O14         8.346627E-04  -5.641110E-04   1.292422E-03
   15 C15         3.288309E-03  -4.000708E-04  -1.910929E-03
   16 O16        -2.794643E-04  -7.425619E-06   1.299405E-03
   17 C17         1.184742E-03  -8.890485E-04   8.700061E-04
   18 C18        -3.499152E-03   4.723324E-03  -4.820628E-03
[...]
  gradient rms:            1.5433E-04 *  (  3.0000E-04 )
  displacement maximum:    3.6127E-03 .  (  1.8000E-03 )
  displacement rms:        6.4312E-04 *  (  1.2000E-03 )
  
  predicted energy change:  -3.6992E-06
  step size:     0.00713
  trust radius:  0.30000
  
  molecular structure not yet converged...
  
  center of mass moved by:
     x:    -1.9051E-04     y:    -2.5040E-04     z:     9.3745E-05
  
  new geometry: 
                                   angstroms
  atom               x                 y                 z
  C1            1.7890051797      0.3206274327      1.9310270060 
  C2            1.3204170166     -0.7765100065      0.9781171185 
  C3            2.2074338596      0.2925946218      0.4381394597 
  C4            3.6625071481     -0.0543847288      0.4487707692 
  C5            4.0824721271     -0.2414638794      1.8343934421 
  C6            3.0001905365     -0.0262821749      2.6838421210 
  C7            5.4233800490     -0.6142373329      2.1544804440 
  C8            6.3410913780     -0.7919048267      1.1353082409 
  C9            5.9365808348     -0.6192860043     -0.2106556834 
  C10           4.5700342671     -0.2652982019     -0.5592902572 
  C11           4.4790339791     -0.1853756152     -2.0294998120 
  C12           3.4765830887      0.0771202789     -2.9038697787 
  C13           3.7549067747      0.0675899188     -4.3587646757 
  O14           2.8534049688      0.3036057542     -5.1777666376 
  C15           5.1884723695     -0.2412036477     -4.8668468685 
  O16           5.4244217701     -0.2453305488     -6.0816092925 
  C17           6.2204771049     -0.5238744558     -3.8419927027 
  C18           5.8239009108     -0.4848218664     -2.5112772559 
  C19           6.7059594752     -0.7432329498     -1.4356567813 
  C20           8.0508873266     -1.0504542264     -1.7147044057 
  C21           8.4612541036     -1.0894508934     -3.0540596708 
  C22           7.5653342271     -0.8316126546     -4.1122955867 
  H23           1.0533661632      1.0098294777      2.3300800804 
  H24           1.3954531854     -1.8550323812      1.0295777029 
  H25           1.8082283117      1.0311176004     -0.2490044603 
  H26           3.0296493214     -0.1159510034      3.7648655649 
  H27           5.7165954138     -0.7412941520      3.1905978478 
  H28           7.3647615818     -1.0628161145      1.3641231061 
  H29           2.4537548523      0.2955008233     -2.6177786350 
  H30           8.7634239063     -1.2542268104     -0.9231199602 
  H31           9.4935604156     -1.3242074199     -3.2853968874 
  H32           7.9039249252     -0.8684311229     -5.1421172939 
   
  nuclear repulsion energy.......    1578.206806256 hartrees
  -------------------------------------------------
 /  end of geometry optimization iteration  32   /
 -------------------------------------------------
   
  Peak memory usage:   4726 Mb
  
  end of program geopt
   
 Time(geopt)  user:        9.3  user+sys:        9.3  wallclock:        0.8
  
  start of program onee
  
  smallest eigenvalue of S:    3.084E-04
  number of canonical orbitals.....          215
  Peak memory usage:   3818 Mb
  
  end of program onee
   
 Time(onee)  user:        2.4  user+sys:        2.4  wallclock:        0.6
  
  start of program probe
  
  Peak memory usage:   3727 Mb
  
  end of program probe
   
 Time(probe)  user:        2.1  user+sys:        2.1  wallclock:        0.8
  
  start of program grid
  
   grid     grid set  grid #  grid sym
  ------    --------  ------  --------
  coarse        0        0        1
  medium        2        1        1
  fine          0        0        1
  ultrafine     4        2        1
  charge       -1        3        1
  gradient      4        2        1
  density       0        0        1
  DFT-fine    -11        4        1
  DFT-med.    -10        5        1
  DFT-grad    -12        6        1
  DFT-der2      0        0        1
  DFT-cphf      0        0        1
  LMP2-enrg     4        2        1
  LMP2-grad     2        1        1
  DFT-cphf2     0        0        1
  PBF-dens      0        0        1
  plotting      0        0        1
  Rel-grad    -17        0        1
  
  number of gridpoints: 
     atom        C1       C2       C3       C4       C5       C6       C7
  grid # 1       93      100       93      100       98       94       97
  grid # 2      314      376      319      368      365      338      338
  grid # 3       49      329       37      162      202      144      224
  grid # 4     4304     4304     4304     4304     4304     4304     4304
  grid # 5     1192     1192     1192     1192     1192     1192     1192
  grid # 6     5226     5226     5226     5226     5226     5226     5226
   
  number of gridpoints: 
     atom        C8       C9      C10      C11      C12      C13      O14
  grid # 1       97      100      100      100       95       99      123
  grid # 2      337      377      374      372      345      364      511
  grid # 3      230      251      234      250      222      257     1473
  grid # 4     4304     4304     4304     4304     4304     4304     4304
  grid # 5     1192     1192     1192     1192     1192     1192     1192
  grid # 6     5226     5226     5226     5226     5226     5226     5226
   
  number of gridpoints: 
     atom       C15      O16      C17      C18      C19      C20      C21
  grid # 1       99      123      102       97      101       97       97
  grid # 2      365      504      364      362      357      334      339
  grid # 3      258     1342      258      243      258      234      232
  grid # 4     4304     4304     4304     4304     4304     4304     4304
  grid # 5     1192     1192     1192     1192     1192     1192     1192
  grid # 6     5226     5226     5226     5226     5226     5226     5226
   
  number of gridpoints: 
     atom       C22      H23      H24      H25      H26      H27      H28
  grid # 1       97      116      118      114      118      118      115
  grid # 2      336      458      462      446      453      447      447
  grid # 3      230     1342     1472      963     1294     1240     1067
  grid # 4     4304     4304     4304     4304     4304     4304     4304
  grid # 5     1192     1192     1192     1192     1192     1192     1192
  grid # 6     5226     5226     5226     5226     5226     5226     5226
   
  number of gridpoints: 
     atom       H29      H30      H31      H32    total
  grid # 1      114      115      118      118     3366
  grid # 2      438      447      451      444    12552
  grid # 3      877     1088     1324     1169    18955
  grid # 4     4304     4304     4304     4304   137728
  grid # 5     1192     1192     1192     1192    38144
  grid # 6     5226     5226     5226     5226   167232
   
  Peak memory usage:   3770 Mb
  
  end of program grid
   
 Time(grid)  user:       16.1  user+sys:       16.1  wallclock:        1.7
  
  start of program rwr
  
  Peak memory usage:   3726 Mb
  
  end of program rwr
   
 Time(rwr)  user:       39.8  user+sys:       39.8  wallclock:        3.9
  
  start of program scf
  
 Energy computed with NOPS off.
  
       i  u  d  i  g                   
       t  p  i  c  r                                 RMS    maximum
       e  d  i  u  i                       energy  density   DIIS  
       r  t  s  t  d       total energy    change  change    error 
  
etot    1  N  N  2  U    -917.96799643059           3.0E-05  1.3E-04
etot    2  N  Y  2  U    -917.96800191247  5.5E-06  1.2E-05  9.5E-05
etot    3  N  Y  2  U    -917.96800103307 -8.8E-07  8.2E-06  1.6E-04
etot    4  N  Y  2  U    -917.96800250561  1.5E-06  2.0E-06  4.1E-05
etot    5  N  N  2  U    -917.96800264381  1.4E-07  0.0E+00  0.0E+00
  
  
 Energy components, in hartrees:
   (A)  Nuclear repulsion............    1578.20680625560
   (E)  Total one-electron terms.....   -4357.03711014661
   (I)  Total two-electron terms.....    1860.86230124720
   (L)  Electronic energy............   -2496.17480889941  (E+I)
   (N)  Total energy.................    -917.96800264381  (A+L)
   (O)  Gas phase energy.............    -917.96800264381
  
                                 Total             Coulomb       Exchange+Corr.
 Total two-electron terms    1860.86230124720    1989.93174312439    -129.06944187718
   Hamiltonian  1........     954.43971188539    1000.38219281810     -45.94248093272
   Hamiltonian  2........     943.96136637272     989.54955030628     -45.58818393357
  
 SCFE: SCF energy: UDFT(b3lyp)      -917.96800264381 hartrees   iterations:   5
  
 
 Alpha HOMO energy:    -0.36314
 Alpha LUMO energy:    -0.28584
 
  Alpha Orbital energies (hartrees): 
   -19.27648   -19.27513   -10.41355   -10.40845   -10.40819   -10.39516
   -10.39509   -10.39361   -10.38237   -10.37969   -10.37935   -10.37852
   -10.37432   -10.36938   -10.36496   -10.35754   -10.35469   -10.35205
   -10.35068   -10.34486   -10.34415   -10.33679    -1.19172    -1.16517
    -1.09937    -1.06502    -1.01739    -0.98144    -0.96408    -0.93348
    -0.92496    -0.89865    -0.86375    -0.84766    -0.80036    -0.79263
    -0.76855    -0.75726    -0.75202    -0.73120    -0.71819    -0.68473
    -0.67100    -0.65420    -0.64739    -0.64248    -0.63491    -0.60989
    -0.60385    -0.60367    -0.58487    -0.58235    -0.57273    -0.56510
    -0.55689    -0.54815    -0.54570    -0.53480    -0.52727    -0.52157
    -0.51469    -0.50307    -0.49912    -0.49532    -0.48432    -0.46601
    -0.45184    -0.42076    -0.40610    -0.39814    -0.38626    -0.37802
    -0.36314    -0.28584    -0.24797    -0.19691    -0.17095    -0.13773
    -0.11633    -0.08049    -0.05211    -0.04866    -0.03914
 
 
 Beta HOMO energy:    -0.36313
 Beta LUMO energy:    -0.28656
 
  Beta Orbital energies (hartrees): 
   -19.27630   -19.27516   -10.41339   -10.40850   -10.40817   -10.39432
   -10.39359   -10.38181   -10.37994   -10.37993   -10.37968   -10.37895
   -10.37434   -10.36947   -10.36457   -10.35755   -10.35466   -10.35184
   -10.35067   -10.34485   -10.34416   -10.33681    -1.19161    -1.16504
    -1.09433    -1.06369    -1.01482    -0.98093    -0.96174    -0.93077
    -0.92385    -0.89849    -0.86322    -0.84664    -0.79885    -0.78757
    -0.76727    -0.75374    -0.74605    -0.72544    -0.71661    -0.68335
    -0.66920    -0.65394    -0.64554    -0.63885    -0.62976    -0.60719
    -0.60338    -0.60265    -0.58439    -0.58203    -0.57189    -0.56326
    -0.55598    -0.54774    -0.54525    -0.53402    -0.52624    -0.51995
    -0.50859    -0.50301    -0.49706    -0.49440    -0.48333    -0.46500
    -0.44608    -0.41610    -0.40599    -0.39040    -0.38165    -0.36313
    -0.28656    -0.24853    -0.23184    -0.19611    -0.16567    -0.13753
    -0.11488    -0.08009    -0.05105    -0.04713
 
  
  
    Unrestricted Spin Properties ...
    Sz*(Sz+1)      0.750
    <S**2> ...     0.756
  
  
  Peak memory usage:   5783 Mb
  
  end of program scf
   
 Time(scf)  user:      105.1  user+sys:      105.1  wallclock:        8.5
  
  start of program der1a
  
  Peak memory usage:   3824 Mb
  
  end of program der1a
   
 Time(der1a)  user:        5.6  user+sys:        5.6  wallclock:        1.0
  
  start of program rwr
  
  Peak memory usage:   3735 Mb
  
  end of program rwr
   
 Time(rwr)  user:       37.6  user+sys:       37.6  wallclock:        4.2
  
  start of program der1b
  
   
  forces (hartrees/bohr) : total     
   
 atom  label           x              y              z
 ---- --------   -------------  -------------  -------------
    1 C1          2.191236E-04   1.377507E-04   1.227208E-04
    2 C2         -1.291174E-04  -6.817029E-05  -7.507613E-05
    3 C3         -1.524697E-04   1.454836E-04  -1.629712E-05
    4 C4          7.064352E-05  -6.428109E-05  -2.540000E-05
    5 C5          3.789744E-05  -5.902521E-05   3.749268E-05
    6 C6         -4.947183E-05  -4.663177E-05   9.293008E-05
    7 C7          6.240772E-05   8.360130E-05   3.174888E-05
    8 C8          4.860788E-05  -3.372438E-05   4.704701E-05
    9 C9         -5.850142E-05  -3.834204E-05  -3.183032E-05
   10 C10         3.612788E-05   4.100890E-05  -1.383448E-05
   11 C11        -3.607713E-06  -3.580696E-05   3.106911E-05
   12 C12         3.366853E-05   2.499590E-06   1.912981E-06
   13 C13         1.668412E-05   8.237219E-08   3.407542E-05
   14 O14        -5.812806E-06   2.126089E-06   2.439551E-05
   15 C15        -1.134601E-05   2.510645E-06  -2.150542E-05
   16 O16        -2.400888E-05   3.449413E-06   1.661416E-05
   17 C17         4.563795E-06  -8.240643E-06   7.037317E-06
   18 C18        -1.644964E-05  -6.837257E-06  -2.237939E-06
   19 C19         2.928541E-05   3.385747E-05  -1.892926E-05
   20 C20         3.394416E-05  -1.658299E-05   5.392054E-06
   21 C21         1.276718E-05  -1.220502E-05  -6.836729E-06
   22 C22         1.636180E-06   1.143817E-06  -1.962854E-07
   23 H23         1.098576E-05  -3.472325E-05   2.088447E-05
   24 H24         1.259209E-04   1.301152E-05   5.337454E-05
   25 H25         5.964550E-05  -4.360593E-06  -5.487678E-05
   26 H26         5.749687E-05   1.721890E-05   3.880959E-06
   27 H27         3.335460E-05  -3.331465E-05  -2.343888E-05
   28 H28         2.693846E-05   8.161004E-06   6.907984E-06
   29 H29         4.821295E-06   2.024221E-06   2.891433E-05
   30 H30         1.507719E-05  -1.144803E-05  -8.274774E-06
   31 H31         9.580493E-07  -1.079607E-05  -1.197933E-05
   32 H32        -8.599363E-06  -8.138540E-06  -3.105393E-06
 -------------   -------------  -------------  -------------
     total        4.831713E-04   1.300785E-06   2.525794E-04
   
  Peak memory usage:   5739 Mb
  
  end of program der1b
   
 Time(der1b)  user:       41.1  user+sys:       41.1  wallclock:        3.7
  
  start of program geopt
  
 ----------------------------------------------------------------------------
  Geometry optimization step 33
  Total energy:      -917.96800264381 hartrees
 ----------------------------------------------------------------------------
  
  energy change:          -9.5684E-08 !  (  5.0000E-05 )
  gradient maximum:        1.5468E-04 *  (  4.5000E-04 )
  gradient rms:            3.9766E-05 #  (  3.0000E-04 )
  displacement maximum:    3.6219E-03 .  (  1.8000E-03 )
  displacement rms:        4.3086E-04 *  (  1.2000E-03 )
  
  predicted energy change:  -6.4510E-07
  step size:     0.00478
  trust radius:  0.30000
  
  ********************************************************
  **           Geometry optimization complete           **
  ********************************************************
  
  Checking the geometry optimization convergence pattern ...
  
  best                    worst
  ==0=====1=====2=====3=====4==
    ^                          
  
  Convergence category 0: monotonic convergence.
  Geometry optimization was OK.
  
  Number of imaginary frequencies:   0
  
  center of mass moved by:
     x:     0.0000E+00     y:     0.0000E+00     z:     0.0000E+00
  
  final geometry: 
                                   angstroms
  atom               x                 y                 z
  C1            1.7890051797      0.3206274327      1.9310270060 
  C2            1.3204170166     -0.7765100065      0.9781171185 
  C3            2.2074338596      0.2925946218      0.4381394597 
  C4            3.6625071481     -0.0543847288      0.4487707692 
  C5            4.0824721271     -0.2414638794      1.8343934421 
  C6            3.0001905365     -0.0262821749      2.6838421210 
  C7            5.4233800490     -0.6142373329      2.1544804440 
  C8            6.3410913780     -0.7919048267      1.1353082409 
  C9            5.9365808348     -0.6192860043     -0.2106556834 
  C10           4.5700342671     -0.2652982019     -0.5592902572 
  C11           4.4790339791     -0.1853756152     -2.0294998120 
  C12           3.4765830887      0.0771202789     -2.9038697787 
  C13           3.7549067747      0.0675899188     -4.3587646757 
  O14           2.8534049688      0.3036057542     -5.1777666376 
  C15           5.1884723695     -0.2412036477     -4.8668468685 
  O16           5.4244217701     -0.2453305488     -6.0816092925 
  C17           6.2204771049     -0.5238744558     -3.8419927027 
  C18           5.8239009108     -0.4848218664     -2.5112772559 
  C19           6.7059594752     -0.7432329498     -1.4356567813 
  C20           8.0508873266     -1.0504542264     -1.7147044057 
  C21           8.4612541036     -1.0894508934     -3.0540596708 
  C22           7.5653342271     -0.8316126546     -4.1122955867 
  H23           1.0533661632      1.0098294777      2.3300800804 
  H24           1.3954531854     -1.8550323812      1.0295777029 
  H25           1.8082283117      1.0311176004     -0.2490044603 
  H26           3.0296493214     -0.1159510034      3.7648655649 
  H27           5.7165954138     -0.7412941520      3.1905978478 
  H28           7.3647615818     -1.0628161145      1.3641231061 
  H29           2.4537548523      0.2955008233     -2.6177786350 
  H30           8.7634239063     -1.2542268104     -0.9231199602 
  H31           9.4935604156     -1.3242074199     -3.2853968874 
  H32           7.9039249252     -0.8684311229     -5.1421172939 
   
  principal moments of inertia:
        amu*angstrom^2:      955.45564     2254.48392     3170.71102
                g*cm^2: 1.58657121E-37 3.74365816E-37 5.26508886E-37
   
  rotational constants:
               cm^(-1):      0.01764355      0.00747738      0.00531667
                   GHz:      0.52894032      0.22416616      0.15938980
   
  nuclear repulsion energy.......    1578.206806256 hartrees
  -------------------------------------------------
 /  end of geometry optimization iteration  33   /
 -------------------------------------------------
   
  Peak memory usage:   4821 Mb
  
  end of program geopt
   
 Time(geopt)  user:       11.5  user+sys:       11.5  wallclock:        1.4
  
  start of program ch
  
  Moments from quantum mechanical wavefunction:
  Dipole Moments  (Debye)
     X=     0.7183     Y=    -0.9785     Z=    13.3318  Tot=    13.3869
  
  gridpoints used for charge fit        17931
    out of a possible maximum of        18955
  
   Electrostatic potential fitting constrained to reproduce
     total charge:                yes
     dipole moment:               yes
     traceless quadrupole moment: no 
     traceless octapole moment:   no 
  
  Atomic charges from electrostatic potential: 
   
 Atom       C1           C2           C3           C4           C5      
 Charge   -0.11383     -0.12220     -0.07556     -0.05098      0.10921
   
 Atom       C6           C7           C8           C9           C10     
 Charge    0.00609     -0.14450     -0.09114     -0.01431      0.24284
   
 Atom       C11          C12          C13          O14          C15     
 Charge   -0.19578     -0.17976      0.49743     -0.41169      0.45356
   
 Atom       O16          C17          C18          C19          C20     
 Charge   -0.40142     -0.14065      0.08281      0.08029     -0.11459
   
 Atom       C21          C22          H23          H24          H25     
 Charge   -0.15295      0.03620      0.18283      0.19951      0.17236
   
 Atom       H26          H27          H28          H29          H30     
 Charge    0.17808      0.17300      0.15891      0.16938      0.15918
   
 Atom       H31          H32     
 Charge    0.16538      0.14232
  
  sum of atomic charges:     1.000000
   
 RMS Error   9.58E-04 hartrees
 
  
  Moments from electrostatic potential charges:
  Dipole Moments  (Debye)
     X=     0.7183     Y=    -0.9785     Z=    13.3318  Tot=    13.3869
  
  Peak memory usage:   3821 Mb
  
  end of program ch
   
 Time(ch)  user:        6.1  user+sys:        6.1  wallclock:        3.5

 Total cpu seconds     user:   12045.297   user+sys:   12045.297
  
 Total elapsed time:    1216 seconds

Job Fluoroanthene_2 completed on n075 at Sun Jan  8 22:45:07 2017
