Job Fluoroanthene_1 started on n049 at Sun Jan  8 22:24:48 2017
jobid: u01-0-58730276

  +--------------------------------------------------------------------+
  |  Jaguar version 9.3, release  15                                   |
  |                                                                    |
  |  Copyright Schrodinger, Inc.                                       |
  |  All Rights Reserved.                                              |
  |                                                                    |
  |  The following have contributed to Jaguar (listed alphabetically): |
  |  Mike Beachy, Art Bochevarov, Dale Braden, Yixiang Cao,            |
  |  Chris Cortis, Rich Friesner, Bill Goddard, Hod Greeley,           |
  |  Tom Hughes, Leif Jacobson, Jean-Marc Langlois,                    |
  |  Daniel Mainz, Rob Murphy, Dean Philipp,                           |
  |  Tom Pollard, Murco Ringnalda, Mark Watson.                        |
  |                                                                    |
  |  Use of this program should be acknowledged in publications as:    |
  |                                                                    |
  |  Jaguar, version 9.3, Schrodinger, Inc., New York, NY, 2016.       |
  |                                                                    |
  |  A. D. Bochevarov, E. Harder, T. F. Hughes, J. R. Greenwood,       |
  |  D. A. Braden, D. M. Philipp, D. Rinaldo, M. D. Halls,             |
  |  J. Zhang, R. A. Friesner, "Jaguar: A High-Performance Quantum     |
  |  Chemistry Software Program with Strengths in Life and Materials   |
  |  Sciences", Int. J. Quantum Chem., 2013, 113(18), 2110-2142.       |
  +--------------------------------------------------------------------+
  
  start of program pre
  
  Job name: Fluoroanthene_1
  Executables used: /home/applications/Schrodinger_Suites_2016-3/jaguar-v9.3/bin/Linux-x86_64
  Temporary files : /scratch/Schrodinger_Suites/pbeni001/Fluoroanthene_1#u01-0-58730276
  Maestro file (input):  Fluoroanthene_1.mae
  Maestro file (output): Fluoroanthene_1.01.mae
  
  basis set:             6-31g                           
  net molecular charge:    1
  multiplicity:            2
  
  Using up to  16 threads per process
  
  number of basis functions....          204
  
 Input geometry:
                                   angstroms
  atom               x                 y                 z
  C1            3.8328333000     -1.4091547000      0.0000514000 
  C2            2.7234030000     -2.2418719000      0.0000097000 
  C3            1.4439787000     -1.7126371000      0.0001080000 
  C4            1.2403170000     -0.3385050000      0.0001795000 
  C5            2.4096784000      0.4856419000     -0.0000162000 
  C6            3.6773614000     -0.0396767000      0.0002006000 
  C7            2.3757043000      1.8508136000     -0.0028206000 
  C8            1.1800505000      2.4301460000     -0.0108141000 
  C9            1.1599823000      3.8501662000     -0.0133862000 
  C10          -0.0226515000      4.7446399000     -0.0103562000 
  C11          -1.3949401000      3.7216198000     -0.0201792000 
  C12          -1.3568628000      2.1768941000     -0.0048687000 
  C13          -0.0471819000      1.6310860000     -0.0030430000 
  C14          -0.0171560000      0.2612624000      0.0004751000 
  C15          -1.3792715000     -0.2388416000      0.0004745000 
  C16          -2.2515172000      0.9121118000     -0.0000969000 
  C17          -3.6115015000      0.6070132000      0.0000710000 
  C18          -4.0619343000     -0.7583720000      0.0001462000 
  C19          -3.1814283000     -1.8402851000      0.0000298000 
  C20          -1.8291149000     -1.5751872000      0.0000438000 
  H21           4.8283637000     -1.8262749000     -0.0000119000 
  H22           2.8344387000     -3.3178035000     -0.0000090000 
  H23           0.6338528000     -2.4140762000      0.0001068000 
  H24           4.5414510000      0.6186669000     -0.0000388000 
  H25           3.2243769000      2.5101696000     -0.0003019000 
  H26           0.2380425000      3.4813898000      0.0872024000 
  H27           0.9264322000      5.3769414000     -0.0183449000 
  H28          -2.3765871000      4.1750499000     -0.0038369000 
  H29          -4.3709846000      1.3762776000     -0.0001473000 
  H30          -5.1252267000     -0.9969803000      0.0000006000 
  H31          -3.5238159000     -2.8771414000     -0.0001084000 
  H32          -1.1840483000     -2.4420022000     -0.0004595000 
   
  principal moments of inertia:
        amu*angstrom^2:     1038.26438     1418.43290     2456.67287
                g*cm^2: 1.72407834E-37 2.35536295E-37 4.07940076E-37
   
  rotational constants:
               cm^(-1):      0.01623636      0.01188469      0.00686198
                   GHz:      0.48675368      0.35629391      0.20571685
   
  Molecular weight:     252.09 amu
   
  Stoichiometry: C20H12
  Molecular Point Group: C1      
  Point Group used: C1
  
 
Number of optimization coordinates:   129
Number of independent coordinates:    129
Number of non-redundant coordinates:   90
Number of frozen coordinates:           0
Number of harmonic constraints:         0
 
Number of geometric degrees of freedom:    90
Maximum geometric degrees of freedom:      90
 " " " " " excluding dummy atoms:          90
 
  nuclear repulsion energy.......    1352.493269186 hartrees
 
 Non-default options chosen:
   SCF calculation type: UDFT(b3lyp)                 
   UDFT=Becke_3_Parameter/HF+Slater+Becke88+VWN+LYP (B3LYP)
   Geometry will be optimized in redundant internal coordinates
   Electrostatic potential fit to point charges on atomic centers
   Electrostatic potential fitting constrained to reproduce
     total charge:                yes
     dipole moment:               yes
     traceless quadrupole moment: no 
     traceless octapole moment:   no 
  
 Temporary integer options set:
     73=  2
  
  Peak memory usage:   4803 Mb
  
  end of program pre
   
 Time(pre)  user:        6.8  user+sys:        6.8  wallclock:        0.9
  
  start of program onee
  
  smallest eigenvalue of S:    2.125E-04
  number of canonical orbitals.....          202
  Peak memory usage:   4838 Mb
  
  end of program onee
   
 Time(onee)  user:        2.5  user+sys:        2.5  wallclock:        0.5
  
  start of program hfig
  
  initial wavefunction generated automatically from atomic wavefunctions
  
  -------------------
  Alpha orbital space
  -------------------
 
  Irreducible     Total no   No of occupied orbitals 
  representation  orbitals   Shell_1  Shell_2    ...
  No Symm          202         66
  ------------------------
  Orbital occupation/shell    1.000
 
  ------------------
  Beta orbital space
  ------------------
 
  Irreducible     Total no   No of occupied orbitals 
  representation  orbitals   Shell_1  Shell_2    ...
  No Symm          202         65
  ------------------------
  Orbital occupation/shell    1.000
 
  
  
    Unrestricted Spin Properties ...
    Sz*(Sz+1) ..............     0.750
    <S**2> of initial guess      0.750
  
  
  Peak memory usage:   4756 Mb
  
  end of program hfig
   
 Time(hfig)  user:        3.7  user+sys:        3.7  wallclock:        0.6
  
  start of program probe
  
  Peak memory usage:   4756 Mb
  
  end of program probe
   
 Time(probe)  user:        2.5  user+sys:        2.5  wallclock:        0.5
  
  start of program grid
  
   grid     grid set  grid #  grid sym
  ------    --------  ------  --------
  coarse        0        0        1
  medium        2        1        1
  fine          0        0        1
  ultrafine     4        2        1
  charge       -1        3        1
  gradient      4        2        1
  density       0        0        1
  DFT-fine    -11        4        1
  DFT-med.    -10        5        1
  DFT-grad    -12        6        1
  DFT-der2      0        0        1
  DFT-cphf      0        0        1
  LMP2-enrg     4        2        1
  LMP2-grad     2        1        1
  DFT-cphf2     0        0        1
  PBF-dens      0        0        1
  plotting      0        0        1
  Rel-grad    -17        0        1
  
  number of gridpoints: 
     atom        C1       C2       C3       C4       C5       C6       C7
  grid # 1       97       97       95      101       97       97       95
  grid # 2      334      334      335      367      358      334      333
  grid # 3      230      228      228      246      234      229      218
  grid # 4     4304     4304     4304     4304     4304     4304     4304
  grid # 5     1192     1192     1192     1192     1192     1192     1192
  grid # 6     5226     5226     5226     5226     5226     5226     5226
   
  number of gridpoints: 
     atom        C8       C9      C10      C11      C12      C13      C14
  grid # 1       97       98       99       97      103       96       98
  grid # 2      339      367      377      353      384      352      365
  grid # 3      226      346      476      238      295      242      257
  grid # 4     4304     4304     4304     4304     4304     4304     4304
  grid # 5     1192     1192     1192     1192     1192     1192     1192
  grid # 6     5226     5226     5226     5226     5226     5226     5226
   
  number of gridpoints: 
     atom       C15      C16      C17      C18      C19      C20      H21
  grid # 1      102      101       95       97       97       95      118
  grid # 2      364      367      340      344      336      334      451
  grid # 3      259      272      230      231      234      229     1331
  grid # 4     4304     4304     4304     4304     4304     4304     4304
  grid # 5     1192     1192     1192     1192     1192     1192     1192
  grid # 6     5226     5226     5226     5226     5226     5226     5226
   
  number of gridpoints: 
     atom       H22      H23      H24      H25      H26      H27      H28
  grid # 1      118      110      113      116       87      113      118
  grid # 2      449      419      442      439      352      446      456
  grid # 3     1324      652     1100     1033      226     1409     1376
  grid # 4     4304     4304     4304     4304     4304     4304     4304
  grid # 5     1192     1192     1192     1192     1192     1192     1192
  grid # 6     5226     5226     5226     5226     5226     5226     5226
   
  number of gridpoints: 
     atom       H29      H30      H31      H32    total
  grid # 1      118      118      118      108     3309
  grid # 2      449      449      449      421    12239
  grid # 3     1249     1330     1327      745    18250
  grid # 4     4304     4304     4304     4304   137728
  grid # 5     1192     1192     1192     1192    38144
  grid # 6     5226     5226     5226     5226   167232
   
  Peak memory usage:   4785 Mb
  
  end of program grid
   
 Time(grid)  user:       15.4  user+sys:       15.4  wallclock:        1.6
  
  start of program rwr
  
  Peak memory usage:   4745 Mb
  
  end of program rwr
   
 Time(rwr)  user:       34.9  user+sys:       34.9  wallclock:        3.1
  
  start of program scf
  
 number of electrons..........        131
 number of alpha electrons....         66
 number of beta electrons.....         65
 number of alpha orbitals.....        202
 number of beta orbitals......        202
 number of alpha occupied orb..        66
 number of alpha virtual orb...       136
 number of beta occupied orb...        65
 number of beta virtual orb....       137
 SCF type: UDFT=Becke_3_Parameter/HF+Slater+Becke88+VWN+LYP (B3LYP)
 Energy computed with NOPS off.
  
       i  u  d  i  g                   
       t  p  i  c  r                                 RMS    maximum
       e  d  i  u  i                       energy  density   DIIS  
       r  t  s  t  d       total energy    change  change    error 
  
etot    1  N  N  5  M    -766.11189127636           1.2E-02  1.8E-01
etot    2  Y  Y  6  M    -768.00423386695  1.9E+00  2.4E-02  7.7E-02
etot    3  Y  Y  6  M    -764.97586943028 -3.0E+00  1.6E-02  2.9E-01
etot    4  N  Y  2  U    -768.31841385832  3.3E+00  1.4E-02  6.6E-02
etot    5  Y  Y  6  M    -768.19336370029 -1.3E-01  5.5E-03  9.1E-02
etot    6  N  Y  2  U    -768.46869039503  2.8E-01  1.9E-03  2.8E-02
etot    7  Y  Y  6  M    -768.47439519011  5.7E-03  8.6E-04  2.1E-02
etot    8  N  Y  2  U    -768.48929498627  1.5E-02  5.1E-04  1.1E-02
etot    9  Y  Y  6  M    -768.49152552294  2.2E-03  3.4E-04  8.1E-03
etot   10  Y  Y  6  M    -768.49312081723  1.6E-03  2.7E-04  2.4E-03
etot   11  N  Y  2  U    -768.49345571752  3.3E-04  1.6E-04  2.1E-03
etot   12  Y  Y  6  M    -768.49362977892  1.7E-04  1.8E-04  1.1E-03
etot   13  Y  Y  6  M    -768.49376015609  1.3E-04  1.4E-04  7.1E-04
etot   14  Y  Y  6  M    -768.49382707345  6.7E-05  1.2E-04  3.5E-04
etot   15  Y  Y  6  M    -768.49386081528  3.4E-05  5.9E-05  2.1E-04
etot   16  N  Y  2  U    -768.49384661820 -1.4E-05  4.0E-05  1.4E-04
etot   17  N  Y  2  U    -768.49385123051  4.6E-06  3.5E-05  9.6E-05
etot   18  N  Y  2  U    -768.49385340568  2.2E-06  2.4E-05  9.8E-05
etot   19  N  Y  2  U    -768.49385453717  1.1E-06  1.3E-05  5.1E-05
etot   20  N  Y  2  U    -768.49385490215  3.6E-07  5.0E-06  3.1E-05
etot   21  N  Y  2  U    -768.49385500329  1.0E-07  1.1E-06  9.8E-06
etot   22  N  N  2  U    -768.49385502107  1.8E-08  0.0E+00  0.0E+00
  
  
 Energy components, in hartrees:
   (A)  Nuclear repulsion............    1352.49326918640
   (E)  Total one-electron terms.....   -3702.05277742503
   (I)  Total two-electron terms.....    1581.06565321755
   (L)  Electronic energy............   -2120.98712420748  (E+I)
   (N)  Total energy.................    -768.49385502107  (A+L)
   (O)  Gas phase energy.............    -768.49385502107
  
                                 Total             Coulomb       Exchange+Corr.
 Total two-electron terms    1581.06565321755    1693.80945820424    -112.74380498669
   Hamiltonian  1........     812.66426028658     852.81166130666     -40.14740102007
   Hamiltonian  2........     801.20445470033     840.99779689758     -39.79334219725
  
 SCFE: SCF energy: UDFT(b3lyp)      -768.49385502107 hartrees   iterations:  22
  
 
 Alpha HOMO energy:    -0.35512
 Alpha LUMO energy:    -0.24112
 
  Alpha Orbital energies (hartrees): 
   -10.40495   -10.40308   -10.39489   -10.36804   -10.36580   -10.36556
   -10.35774   -10.35608   -10.35515   -10.35228   -10.34656   -10.34636
   -10.34456   -10.34328   -10.34306   -10.34067   -10.33960   -10.33729
   -10.33276   -10.32678    -1.11519    -1.06224    -1.03379    -0.99087
    -0.97543    -0.94328    -0.90819    -0.89986    -0.88793    -0.87008
    -0.81655    -0.80619    -0.77929    -0.76224    -0.74638    -0.71588
    -0.71561    -0.68816    -0.65858    -0.65538    -0.63590    -0.61623
    -0.60749    -0.60451    -0.59198    -0.58870    -0.58784    -0.58008
    -0.56392    -0.54925    -0.53649    -0.53613    -0.51826    -0.51405
    -0.51097    -0.50483    -0.47749    -0.47708    -0.47133    -0.45861
    -0.43536    -0.40444    -0.39521    -0.38136    -0.35771    -0.35512
    -0.24112    -0.19228    -0.16537    -0.15534    -0.14511    -0.12241
    -0.10113    -0.08709    -0.04694    -0.02762
 
 
 Beta HOMO energy:    -0.35086
 Beta LUMO energy:    -0.30918
 
  Beta Orbital energies (hartrees): 
   -10.40420   -10.40242   -10.39389   -10.36606   -10.36515   -10.36470
   -10.35853   -10.35559   -10.35301   -10.35239   -10.34693   -10.34436
   -10.34330   -10.34319   -10.34117   -10.34068   -10.33757   -10.33647
   -10.33178   -10.32766    -1.11338    -1.05893    -1.03122    -0.98752
    -0.97130    -0.93986    -0.90629    -0.89725    -0.88641    -0.86415
    -0.81407    -0.80389    -0.77668    -0.76060    -0.74469    -0.71398
    -0.71362    -0.68665    -0.65656    -0.65384    -0.63508    -0.61490
    -0.60593    -0.60316    -0.59064    -0.58659    -0.58058    -0.57914
    -0.56264    -0.54775    -0.53520    -0.52978    -0.51544    -0.51013
    -0.50985    -0.50401    -0.47632    -0.46994    -0.46467    -0.44868
    -0.42545    -0.39468    -0.39049    -0.37750    -0.35086    -0.30918
    -0.22767    -0.18556    -0.15682    -0.14675    -0.14318    -0.11610
    -0.09300    -0.07682    -0.04557
 
  
  
    Unrestricted Spin Properties ...
    Sz*(Sz+1)      0.750
    <S**2> ...     0.764
  
  
  Peak memory usage:   6747 Mb
  
  end of program scf
   
 Time(scf)  user:      285.7  user+sys:      285.7  wallclock:       20.3
  
  start of program der1a
  
  Peak memory usage:   4838 Mb
  
  end of program der1a
   
 Time(der1a)  user:        1.8  user+sys:        1.8  wallclock:        0.4
  
  start of program rwr
  
  Peak memory usage:   4745 Mb
  
  end of program rwr
   
 Time(rwr)  user:       24.9  user+sys:       24.9  wallclock:        3.6
  
  start of program der1b
  
   
  forces (hartrees/bohr) : total     
   
 atom  label           x              y              z
 ---- --------   -------------  -------------  -------------
    1 C1          2.215068E-02  -1.021619E-02  -1.953531E-04
    2 C2         -1.170796E-03  -1.204166E-02   3.643389E-06
    3 C3          2.573603E-03  -1.758776E-02  -1.084647E-05
    4 C4          1.109940E-02  -1.268009E-02   3.676218E-04
    5 C5          1.047202E-02  -1.148452E-02   1.155472E-03
    6 C6          2.672675E-02  -2.090209E-02  -5.967590E-05
    7 C7          2.070166E-02   2.296686E-03  -2.963513E-04
    8 C8         -4.736379E-02  -2.228722E-03  -6.122033E-03
    9 C9          9.396187E-02   2.539843E-02  -1.422629E-02
   10 C10        -3.424197E-02  -7.189077E-02  -6.787984E-03
   11 C11        -1.037472E-02  -9.289693E-03   4.730668E-05
   12 C12         1.548613E-02   6.494380E-02  -1.451324E-03
   13 C13         2.193480E-02   5.278939E-02  -2.356342E-03
   14 C14        -9.972852E-03  -2.968298E-02   1.336296E-03
   15 C15         1.799933E-02   4.284658E-03  -5.000800E-04
   16 C16        -9.368876E-03  -5.607077E-03   2.314139E-04
   17 C17        -7.432067E-03   1.091612E-03  -1.406683E-04
   18 C18        -5.662071E-03   5.032656E-03  -9.322181E-05
   19 C19        -1.296910E-02   2.289105E-03   1.433852E-04
   20 C20         9.185377E-03   5.061596E-03  -2.717759E-05
   21 H21         2.591909E-03  -3.443164E-03   5.172227E-05
   22 H22         3.025105E-03  -1.358211E-03   1.740676E-05
   23 H23        -5.221952E-03  -2.663453E-04  -2.642142E-05
   24 H24        -1.676113E-03  -1.450147E-03   8.032587E-05
   25 H25         9.393476E-03  -3.547691E-03  -2.025146E-04
   26 H26        -8.037230E-02  -1.930106E-02   2.749090E-02
   27 H27        -4.739751E-02   3.865376E-02   3.019363E-03
   28 H28         4.666219E-04   5.986743E-03  -1.520025E-03
   29 H29        -7.508612E-04   3.184058E-03   3.062315E-05
   30 H30         1.543140E-03   8.767042E-03   5.089660E-05
   31 H31        -2.218673E-03   7.330022E-03   8.355895E-07
   32 H32         5.988709E-03   5.538425E-03  -1.030662E-04
 -------------   -------------  -------------  -------------
     total       -8.930750E-04  -3.301767E-04  -9.215987E-05
   
  Peak memory usage:   6741 Mb
  
  end of program der1b
   
 Time(der1b)  user:       37.9  user+sys:       37.9  wallclock:        2.8
  
  start of program geopt
  
 ----------------------------------------------------------------------------
  Geometry optimization step  1
  Total energy:      -768.49385502107 hartrees
 ----------------------------------------------------------------------------
  
  
  Level shifts adjusted to satisfy step-size constraints
   Step size:    0.3009883
   Cos(theta):   0.9892484
   Final level shift:  -6.3199843E-01
  
  gradient maximum:        1.2594E-01 .  (  4.5000E-04 )
  gradient rms:            2.7664E-02 .  (  3.0000E-04 )
  displacement maximum:    1.0446E-01 .  (  1.8000E-03 )
  displacement rms:        2.6499E-02 .  (  1.2000E-03 )
  
  predicted energy change:  -7.5401E-02
  step size:     0.30097
  trust radius:  0.30000
  
  molecular structure not yet converged...
  
  center of mass moved by:
     x:     2.3688E-02     y:    -8.8902E-03     z:    -1.0767E-03
  
  new geometry: 
                                   angstroms
  atom               x                 y                 z
  C1            3.9088569978     -1.4846999667      0.0003674453 
  C2            2.7849981493     -2.3075176461      0.0006480335 
  C3            1.5052485331     -1.7586859612      0.0009291688 
  C4            1.2991225733     -0.3699632469      0.0007904915 
  C5            2.4790163133      0.4624315145      0.0003182903 
  C6            3.7571991815     -0.1049499851      0.0004155542 
  C7            2.4089819205      1.8605237693     -0.0034019252 
  C8            1.1770158916      2.4575878158     -0.0130828559 
  C9            1.0597205172      3.8985707195     -0.0123803359 
  C10          -0.2212286133      4.7079682856     -0.0126980221 
  C11          -1.5139774888      3.6598530843     -0.0229994866 
  C12          -1.3466310839      2.1692242890     -0.0056826180 
  C13          -0.0185108423      1.6411880226     -0.0046009008 
  C14           0.0221584833      0.2456519294      0.0002375932 
  C15          -1.3583071304     -0.2350029844      0.0007460497 
  C16          -2.2252355402      0.9218762585      0.0002615422 
  C17          -3.5943817802      0.6871732882      0.0010382268 
  C18          -4.0940560856     -0.6472523629      0.0016116740 
  C19          -3.2406834992     -1.7537446113      0.0013447176 
  C20          -1.8627804843     -1.5471713270      0.0006742304 
  H21           4.8997996084     -1.9176511222      0.0002415280 
  H22           2.8898381063     -3.3849668327      0.0007470885 
  H23           0.6812206350     -2.4471606574      0.0010995704 
  H24           4.6251424675      0.5463113663      0.0000977373 
  H25           3.2579757554      2.5239988623     -0.0013159340 
  H26           0.1239086836      3.4634447859      0.1020725896 
  H27           0.5852223585      5.4996751934     -0.0109530059 
  H28          -2.5124895253      4.0778640195     -0.0122599308 
  H29          -4.3132527593      1.4965234619      0.0007502498 
  H30          -5.1670392332     -0.8265326775      0.0020403369 
  H31          -3.6218580541     -2.7733210048      0.0015676064 
  H32          -1.2400716223     -2.4296221362     -0.0001328614 
   
  nuclear repulsion energy.......    1343.389465713 hartrees
  -------------------------------------------------
 /  end of geometry optimization iteration   1   /
 -------------------------------------------------
   
  Peak memory usage:   4726 Mb
  
  end of program geopt
   
 Time(geopt)  user:        6.1  user+sys:        6.1  wallclock:        0.5
  
  start of program onee
  
  smallest eigenvalue of S:    2.347E-04
  number of canonical orbitals.....          202
  Peak memory usage:   4838 Mb
  
  end of program onee
   
 Time(onee)  user:        2.3  user+sys:        2.3  wallclock:        0.4
  
  start of program probe
  
  Peak memory usage:   4756 Mb
  
  end of program probe
   
 Time(probe)  user:        1.8  user+sys:        1.8  wallclock:        0.4
  
  start of program grid
  
   grid     grid set  grid #  grid sym
  ------    --------  ------  --------
  coarse        0        0        1
  medium        2        1        1
  fine          0        0        1
  ultrafine     4        2        1
  charge       -1        3        1
  gradient      4        2        1
  density       0        0        1
  DFT-fine    -11        4        1
  DFT-med.    -10        5        1
  DFT-grad    -12        6        1
  DFT-der2      0        0        1
  DFT-cphf      0        0        1
  LMP2-enrg     4        2        1
  LMP2-grad     2        1        1
  DFT-cphf2     0        0        1
  PBF-dens      0        0        1
  plotting      0        0        1
  Rel-grad    -17        0        1
  
  number of gridpoints: 
     atom        C1       C2       C3       C4       C5       C6       C7
  grid # 1       97       97       95       99      101       97       95
  grid # 2      334      336      337      365      361      337      334
  grid # 3      230      228      229      254      255      228      227
  grid # 4     4304     4304     4304     4304     4304     4304     4304
  grid # 5     1192     1192     1192     1192     1192     1192     1192
  grid # 6     5226     5226     5226     5226     5226     5226     5226
   
  number of gridpoints: 
     atom        C8       C9      C10      C11      C12      C13      C14
  grid # 1       97       98       98       97      100       98       95
  grid # 2      349      381      368      345      380      355      367
  grid # 3      228      430      396      238      272      239      251
  grid # 4     4304     4304     4304     4304     4304     4304     4304
  grid # 5     1192     1192     1192     1192     1192     1192     1192
  grid # 6     5226     5226     5226     5226     5226     5226     5226
   
  number of gridpoints: 
     atom       C15      C16      C17      C18      C19      C20      H21
  grid # 1      102      101       95       97       97       95      118
  grid # 2      364      366      338      343      334      334      451
  grid # 3      260      267      229      234      232      232     1341
  grid # 4     4304     4304     4304     4304     4304     4304     4304
  grid # 5     1192     1192     1192     1192     1192     1192     1192
  grid # 6     5226     5226     5226     5226     5226     5226     5226
   
  number of gridpoints: 
     atom       H22      H23      H24      H25      H26      H27      H28
  grid # 1      118      110      115      118       88      115      118
  grid # 2      449      422      442      441      354      449      456
  grid # 3     1327      681     1120     1082      228     1469     1322
  grid # 4     4304     4304     4304     4304     4304     4304     4304
  grid # 5     1192     1192     1192     1192     1192     1192     1192
  grid # 6     5226     5226     5226     5226     5226     5226     5226
   
  number of gridpoints: 
     atom       H29      H30      H31      H32    total
  grid # 1      118      118      118      112     3317
  grid # 2      449      451      449      424    12265
  grid # 3     1186     1324     1335      772    18346
  grid # 4     4304     4304     4304     4304   137728
  grid # 5     1192     1192     1192     1192    38144
  grid # 6     5226     5226     5226     5226   167232
   
  Peak memory usage:   4785 Mb
  
  end of program grid
   
 Time(grid)  user:       14.5  user+sys:       14.5  wallclock:        1.5
  
  start of program rwr
  
  Peak memory usage:   4745 Mb
  
  end of program rwr
   
 Time(rwr)  user:       34.1  user+sys:       34.1  wallclock:        3.3
  
  start of program scf
  
 Energy computed with NOPS off.
  
       i  u  d  i  g                   
       t  p  i  c  r                                 RMS    maximum
       e  d  i  u  i                       energy  density   DIIS  
       r  t  s  t  d       total energy    change  change    error 
  
etot    1  N  N  2  U    -768.55647404430           1.9E-03  1.4E-02
etot    2  Y  Y  6  M    -768.56709084269  1.1E-02  1.1E-03  1.4E-02
etot    3  N  Y  2  U    -768.56417354637 -2.9E-03  6.5E-04  1.4E-02
etot    4  Y  Y  6  M    -768.57258095055  8.4E-03  8.9E-05  1.7E-03
etot    5  N  Y  2  U    -768.57274461616  1.6E-04  5.0E-05  8.3E-04
etot    6  Y  Y  6  M    -768.57277455776  3.0E-05  2.5E-05  3.2E-04
etot    7  N  Y  2  U    -768.57278083340  6.3E-06  1.5E-05  2.2E-04
etot    8  N  Y  2  U    -768.57278335693  2.5E-06  1.5E-05  9.3E-05
etot    9  N  Y  2  U    -768.57278504190  1.7E-06  1.5E-05  9.6E-05
etot   10  N  Y  2  U    -768.57278613335  1.1E-06  1.3E-05  5.5E-05
etot   11  N  Y  2  U    -768.57278661029  4.8E-07  5.4E-06  2.6E-05
etot   12  N  Y  2  U    -768.57278669826  8.8E-08  2.5E-06  1.6E-05
etot   13  N  N  2  U    -768.57278672570  2.7E-08  0.0E+00  0.0E+00
  
  
 Energy components, in hartrees:
   (A)  Nuclear repulsion............    1343.38946571331
   (E)  Total one-electron terms.....   -3684.25242627946
   (I)  Total two-electron terms.....    1572.29017384045
   (L)  Electronic energy............   -2111.96225243901  (E+I)
   (N)  Total energy.................    -768.57278672570  (A+L)
   (O)  Gas phase energy.............    -768.57278672570
  
                                 Total             Coulomb       Exchange+Corr.
 Total two-electron terms    1572.29017384045    1684.91377177402    -112.62359793356
   Hamiltonian  1........     808.21468223363     848.31845229817     -40.10377006454
   Hamiltonian  2........     796.84533159640     836.59531947584     -39.74998787945
  
 SCFE: SCF energy: UDFT(b3lyp)      -768.57278672570 hartrees   iterations:  13
  
 
 Alpha HOMO energy:    -0.35586
 Alpha LUMO energy:    -0.24326
 
  Alpha Orbital energies (hartrees): 
   -10.40631   -10.40181   -10.38714   -10.37462   -10.37012   -10.36484
   -10.36379   -10.35892   -10.35622   -10.35586   -10.35091   -10.34950
   -10.34921   -10.34385   -10.34219   -10.34074   -10.33876   -10.33608
   -10.33535   -10.32577    -1.10081    -1.04971    -1.02670    -0.98418
    -0.96713    -0.93748    -0.90352    -0.90042    -0.88295    -0.86846
    -0.81601    -0.80211    -0.77316    -0.75863    -0.74152    -0.71646
    -0.71012    -0.68439    -0.65966    -0.64903    -0.63195    -0.61996
    -0.60811    -0.60389    -0.59036    -0.58428    -0.58148    -0.57564
    -0.56643    -0.55723    -0.53584    -0.53247    -0.52133    -0.51076
    -0.50801    -0.50158    -0.47926    -0.47775    -0.47050    -0.46054
    -0.43033    -0.40382    -0.39861    -0.37524    -0.35816    -0.35586
    -0.24326    -0.19058    -0.16632    -0.15420    -0.12701    -0.11861
    -0.09896    -0.08969    -0.04516    -0.02841
 
 
 Beta HOMO energy:    -0.35084
 Beta LUMO energy:    -0.30792
 
  Beta Orbital energies (hartrees): 
   -10.40527   -10.40152   -10.38610   -10.37119   -10.37059   -10.36456
   -10.36175   -10.35835   -10.35635   -10.35591   -10.35163   -10.34773
   -10.34762   -10.34374   -10.34035   -10.34010   -10.33872   -10.33426
   -10.33422   -10.32658    -1.09881    -1.04652    -1.02435    -0.98074
    -0.96298    -0.93382    -0.90211    -0.89755    -0.88164    -0.86253
    -0.81304    -0.80017    -0.77077    -0.75705    -0.73974    -0.71464
    -0.70790    -0.68304    -0.65759    -0.64744    -0.63107    -0.61881
    -0.60629    -0.60270    -0.58903    -0.58315    -0.57479    -0.57338
    -0.56513    -0.55583    -0.53486    -0.52632    -0.51972    -0.50725
    -0.50525    -0.50075    -0.47763    -0.47705    -0.45737    -0.45058
    -0.42045    -0.39809    -0.39100    -0.37220    -0.35084    -0.30792
    -0.22886    -0.18455    -0.15817    -0.14594    -0.12083    -0.11637
    -0.09124    -0.07912    -0.04384
 
  
  
    Unrestricted Spin Properties ...
    Sz*(Sz+1)      0.750
    <S**2> ...     0.765
  
  
  Peak memory usage:   6747 Mb
  
  end of program scf
   
 Time(scf)  user:      205.1  user+sys:      205.1  wallclock:       14.6
  
  start of program der1a
  
  Peak memory usage:   4838 Mb
  
  end of program der1a
   
 Time(der1a)  user:        2.0  user+sys:        2.0  wallclock:        0.5
  
  start of program rwr
  
  Peak memory usage:   4745 Mb
  
  end of program rwr
   
 Time(rwr)  user:       27.8  user+sys:       27.8  wallclock:        3.4
  
  start of program der1b
  
   
  forces (hartrees/bohr) : total     
   
 atom  label           x              y              z
 ---- --------   -------------  -------------  -------------
    1 C1          1.220626E-02  -6.846434E-04  -2.128151E-04
    2 C2         -4.973271E-03  -4.934497E-03   2.318844E-05
    3 C3          1.854706E-03  -8.493869E-03   2.197419E-05
    4 C4          3.395969E-03  -7.114911E-03   2.169516E-04
    5 C5          7.925114E-03   2.137072E-03   9.979429E-04
    6 C6          9.981120E-03  -9.957249E-03   7.430480E-06
    7 C7          2.455238E-03  -3.156005E-03  -1.261230E-03
    8 C8         -2.071585E-02  -4.863254E-03  -5.098164E-03
    9 C9          6.094288E-02   4.153121E-03  -1.232138E-02
   10 C10        -2.778551E-03  -7.189494E-02  -7.028803E-03
   11 C11         8.128541E-03   6.313014E-03  -4.618695E-04
   12 C12         6.570112E-03   5.145252E-02  -2.083908E-03
   13 C13         1.575229E-02   2.634350E-02  -1.909359E-03
   14 C14        -4.949009E-03  -1.677841E-02   1.545369E-03
   15 C15         1.213041E-02   4.338446E-03  -6.349818E-04
   16 C16        -3.198154E-03  -8.082378E-04   1.951377E-04
   17 C17        -3.995556E-03   3.021875E-03  -8.164509E-05
   18 C18        -2.550480E-03  -4.941597E-04  -3.828899E-05
   19 C19        -4.597676E-03   3.181340E-03   1.714163E-04
   20 C20         5.513188E-04   2.813975E-03  -6.470762E-05
   21 H21         1.521389E-03  -1.187499E-03   4.498924E-05
   22 H22         1.642530E-03  -8.088683E-04   1.418281E-05
   23 H23        -5.136182E-03  -5.959778E-04  -1.603678E-05
   24 H24        -3.766904E-04  -7.130026E-04   7.476511E-05
   25 H25         8.067316E-03  -3.030144E-03   1.856524E-04
   26 H26        -4.287965E-02  -1.343932E-02   2.580570E-02
   27 H27        -6.264828E-02   2.907680E-02   3.395397E-03
   28 H28         1.827387E-04   2.395752E-03  -1.498656E-03
   29 H29         2.916814E-04   2.247141E-03   1.048544E-05
   30 H30         1.696820E-03   4.425764E-03   2.359585E-05
   31 H31        -1.833146E-03   4.726206E-03  -1.271897E-06
   32 H32         4.730656E-03   2.667372E-03  -1.013556E-04
 -------------   -------------  -------------  -------------
     total       -6.054037E-04   3.389013E-04  -8.028878E-05
   
  Peak memory usage:   6741 Mb
  
  end of program der1b
   
 Time(der1b)  user:       36.9  user+sys:       36.9  wallclock:        2.9
  
  start of program geopt
  
 ----------------------------------------------------------------------------
  Geometry optimization step  2
  Total energy:      -768.57278672570 hartrees
 ----------------------------------------------------------------------------
  
  
  Level shifts adjusted to satisfy step-size constraints
   Step size:    0.3000452
   Cos(theta):   0.9928962
   Final level shift:  -5.7756999E-01
  
  energy change:          -7.8932E-02 .  (  5.0000E-05 )
  gradient maximum:        1.3801E-01 .  (  4.5000E-04 )
  gradient rms:            2.0208E-02 .  (  3.0000E-04 )
  displacement maximum:    1.7885E-01 .  (  1.8000E-03 )
  displacement rms:        2.6417E-02 .  (  1.2000E-03 )
  
  predicted energy change:  -6.0186E-02
  step size:     0.30004
  trust radius:  0.30000
  
  molecular structure not yet converged...
  
  center of mass moved by:
     x:     2.4541E-02     y:    -8.2762E-03     z:    -1.6053E-03
  
  new geometry: 
                                   angstroms
  atom               x                 y                 z
  C1            3.9456880850     -1.5241138980      0.0004672675 
  C2            2.8107691027     -2.3426388188      0.0013929606 
  C3            1.5330390978     -1.7825990344      0.0020801140 
  C4            1.3335535013     -0.3868454136      0.0016200987 
  C5            2.5204271372      0.4517386778      0.0005533603 
  C6            3.8000779569     -0.1403457902      0.0003528080 
  C7            2.4366687669      1.8630128480     -0.0042424366 
  C8            1.1871212692      2.4699490709     -0.0158904802 
  C9            1.0010144333      3.9169570038     -0.0109039835 
  C10          -0.3660615054      4.6298934980     -0.0171021657 
  C11          -1.5872004965      3.5887122447     -0.0274924612 
  C12          -1.3235316455      2.1591222503     -0.0068724208 
  C13           0.0145416162      1.6427973003     -0.0058126738 
  C14           0.0501584417      0.2338386984      0.0007421064 
  C15          -1.3412244889     -0.2306316453      0.0015825321 
  C16          -2.1961866261      0.9328210659      0.0004891574 
  C17          -3.5702847292      0.7596627898      0.0016544248 
  C18          -4.1104665198     -0.5515034389      0.0033566414 
  C19          -3.2832451525     -1.6779693534      0.0036698036 
  C20          -1.8902306739     -1.5216464831      0.0023999076 
  H21           4.9341748006     -1.9655882865      0.0001217936 
  H22           2.9122820631     -3.4210608562      0.0016571506 
  H23           0.6948041597     -2.4589508795      0.0027061781 
  H24           4.6712445458      0.5060014290     -0.0002629354 
  H25           3.2955294588      2.5191219006     -0.0018118281 
  H26           0.0648281039      3.4123212398      0.1220658582 
  H27           0.1977624660      5.5858405282      0.0021023998 
  H28          -2.5953231237      3.9841558023     -0.0244413510 
  H29          -4.2495244250      1.6037556083      0.0006854005 
  H30          -5.1883761528     -0.6849961080      0.0041656348 
  H31          -3.6973060749     -2.6818712719      0.0047552035 
  H32          -1.2853681217     -2.4171712770      0.0018870061 
   
  nuclear repulsion energy.......    1341.890981808 hartrees
  -------------------------------------------------
 /  end of geometry optimization iteration   2   /
 -------------------------------------------------
   
  Peak memory usage:   4726 Mb
  
  end of program geopt
   
 Time(geopt)  user:        6.0  user+sys:        6.0  wallclock:        0.5
  
  start of program onee
  
  smallest eigenvalue of S:    2.405E-04
  number of canonical orbitals.....          202
  Peak memory usage:   4838 Mb
  
  end of program onee
   
 Time(onee)  user:        1.9  user+sys:        1.9  wallclock:        0.5
  
  start of program probe
  
  Peak memory usage:   4756 Mb
  
  end of program probe
   
 Time(probe)  user:        1.5  user+sys:        1.5  wallclock:        0.4
  
  start of program grid
  
   grid     grid set  grid #  grid sym
  ------    --------  ------  --------
  coarse        0        0        1
  medium        2        1        1
  fine          0        0        1
  ultrafine     4        2        1
  charge       -1        3        1
  gradient      4        2        1
  density       0        0        1
  DFT-fine    -11        4        1
  DFT-med.    -10        5        1
  DFT-grad    -12        6        1
  DFT-der2      0        0        1
  DFT-cphf      0        0        1
  LMP2-enrg     4        2        1
  LMP2-grad     2        1        1
  DFT-cphf2     0        0        1
  PBF-dens      0        0        1
  plotting      0        0        1
  Rel-grad    -17        0        1
  
  number of gridpoints: 
     atom        C1       C2       C3       C4       C5       C6       C7
  grid # 1       97       97       97       99      101       97       95
  grid # 2      334      336      337      367      362      337      336
  grid # 3      230      230      228      254      259      228      232
  grid # 4     4304     4304     4304     4304     4304     4304     4304
  grid # 5     1192     1192     1192     1192     1192     1192     1192
  grid # 6     5226     5226     5226     5226     5226     5226     5226
   
  number of gridpoints: 
     atom        C8       C9      C10      C11      C12      C13      C14
  grid # 1       98       98       97       96       98       97      100
  grid # 2      351      388      354      343      364      363      369
  grid # 3      231      530      298      229      265      236      249
  grid # 4     4304     4304     4304     4304     4304     4304     4304
  grid # 5     1192     1192     1192     1192     1192     1192     1192
  grid # 6     5226     5226     5226     5226     5226     5226     5226
   
  number of gridpoints: 
     atom       C15      C16      C17      C18      C19      C20      H21
  grid # 1      102      101       97       97       97       97      118
  grid # 2      362      364      337      339      337      336      451
  grid # 3      261      264      228      234      232      234     1344
  grid # 4     4304     4304     4304     4304     4304     4304     4304
  grid # 5     1192     1192     1192     1192     1192     1192     1192
  grid # 6     5226     5226     5226     5226     5226     5226     5226
   
  number of gridpoints: 
     atom       H22      H23      H24      H25      H26      H27      H28
  grid # 1      118      112      115      118       90      115      118
  grid # 2      449      423      442      442      353      452      454
  grid # 3     1331      696     1126     1113      228     1502     1263
  grid # 4     4304     4304     4304     4304     4304     4304     4304
  grid # 5     1192     1192     1192     1192     1192     1192     1192
  grid # 6     5226     5226     5226     5226     5226     5226     5226
   
  number of gridpoints: 
     atom       H29      H30      H31      H32    total
  grid # 1      115      118      118      112     3325
  grid # 2      449      451      449      425    12256
  grid # 3     1124     1327     1335      802    18343
  grid # 4     4304     4304     4304     4304   137728
  grid # 5     1192     1192     1192     1192    38144
  grid # 6     5226     5226     5226     5226   167232
   
  Peak memory usage:   4785 Mb
  
  end of program grid
   
 Time(grid)  user:       14.5  user+sys:       14.5  wallclock:        1.5
  
  start of program rwr
  
  Peak memory usage:   4745 Mb
  
  end of program rwr
   
 Time(rwr)  user:       34.3  user+sys:       34.3  wallclock:        3.1
  
  start of program scf
  
 Energy computed with NOPS off.
  
       i  u  d  i  g                   
       t  p  i  c  r                                 RMS    maximum
       e  d  i  u  i                       energy  density   DIIS  
       r  t  s  t  d       total energy    change  change    error 
  
etot    1  N  N  2  U    -768.61834232510           1.7E-03  1.3E-02
etot    2  Y  Y  6  M    -768.62834461806  1.0E-02  9.8E-04  9.5E-03
etot    3  N  Y  2  U    -768.62607822026 -2.3E-03  5.6E-04  1.2E-02
etot    4  Y  Y  6  M    -768.63251943648  6.4E-03  7.9E-05  1.1E-03
etot    5  N  Y  2  U    -768.63266365719  1.4E-04  3.5E-05  5.3E-04
etot    6  N  Y  2  U    -768.63267489008  1.1E-05  1.6E-05  2.9E-04
etot    7  N  Y  2  U    -768.63267828270  3.4E-06  1.2E-05  1.6E-04
etot    8  N  Y  2  U    -768.63267998318  1.7E-06  9.9E-06  9.7E-05
etot    9  N  Y  2  U    -768.63268104698  1.1E-06  8.4E-06  6.5E-05
etot   10  N  Y  2  U    -768.63268158134  5.3E-07  5.3E-06  4.6E-05
etot   11  N  Y  2  U    -768.63268177091  1.9E-07  3.0E-06  2.1E-05
etot   12  N  N  2  U    -768.63268181773  4.7E-08  0.0E+00  0.0E+00
  
  
 Energy components, in hartrees:
   (A)  Nuclear repulsion............    1341.89098180795
   (E)  Total one-electron terms.....   -3681.44546379131
   (I)  Total two-electron terms.....    1570.92180016562
   (L)  Electronic energy............   -2110.52366362568  (E+I)
   (N)  Total energy.................    -768.63268181773  (A+L)
   (O)  Gas phase energy.............    -768.63268181773
  
                                 Total             Coulomb       Exchange+Corr.
 Total two-electron terms    1570.92180016562    1683.52782983852    -112.60602967290
   Hamiltonian  1........     807.49666461030     847.59394931668     -40.09728470638
   Hamiltonian  2........     796.18960058359     835.93388052185     -39.74427993825
  
 SCFE: SCF energy: UDFT(b3lyp)      -768.63268181773 hartrees   iterations:  12
  
 
 Alpha HOMO energy:    -0.35564
 Alpha LUMO energy:    -0.24482
 
  Alpha Orbital energies (hartrees): 
   -10.40553   -10.39464   -10.37865   -10.37750   -10.37329   -10.37017
   -10.36671   -10.36071   -10.35536   -10.35177   -10.35134   -10.35098
   -10.34863   -10.34587   -10.34287   -10.34146   -10.34082   -10.33584
   -10.33329   -10.32443    -1.09674    -1.04320    -1.02372    -0.98035
    -0.96455    -0.93529    -0.90433    -0.90062    -0.87932    -0.86787
    -0.81876    -0.79862    -0.76968    -0.75727    -0.73841    -0.71861
    -0.70728    -0.68365    -0.65983    -0.64546    -0.63036    -0.62461
    -0.61014    -0.60206    -0.59086    -0.58278    -0.57941    -0.57205
    -0.56746    -0.56219    -0.53602    -0.53134    -0.52695    -0.50942
    -0.50658    -0.50050    -0.48498    -0.47795    -0.46735    -0.46407
    -0.42791    -0.40344    -0.40180    -0.37081    -0.36345    -0.35564
    -0.24482    -0.18699    -0.16673    -0.15339    -0.12918    -0.09618
    -0.09060    -0.07932    -0.04428    -0.02979
 
 
 Beta HOMO energy:    -0.35478
 Beta LUMO energy:    -0.30713
 
  Beta Orbital energies (hartrees): 
   -10.40422   -10.39457   -10.37743   -10.37406   -10.37377   -10.36744
   -10.36692   -10.36127   -10.35529   -10.35137   -10.34983   -10.34937
   -10.34919   -10.34569   -10.34230   -10.33964   -10.33959   -10.33565
   -10.33169   -10.32517    -1.09468    -1.04017    -1.02147    -0.97682
    -0.96053    -0.93140    -0.90371    -0.89720    -0.87780    -0.86218
    -0.81565    -0.79657    -0.76743    -0.75576    -0.73655    -0.71677
    -0.70493    -0.68236    -0.65778    -0.64384    -0.62940    -0.62360
    -0.60841    -0.60076    -0.58964    -0.58175    -0.57180    -0.57091
    -0.56626    -0.56085    -0.53505    -0.52588    -0.52502    -0.50592
    -0.50380    -0.49957    -0.48345    -0.47730    -0.45445    -0.45347
    -0.41793    -0.40133    -0.39126    -0.36876    -0.35478    -0.30713
    -0.22927    -0.18140    -0.15874    -0.14532    -0.12226    -0.08829
    -0.08018    -0.07755    -0.04301
 
  
  
    Unrestricted Spin Properties ...
    Sz*(Sz+1)      0.750
    <S**2> ...     0.766
  
  
  Peak memory usage:   6747 Mb
  
  end of program scf
   
 Time(scf)  user:      179.3  user+sys:      179.3  wallclock:       12.7
  
  start of program der1a
  
  Peak memory usage:   4838 Mb
  
  end of program der1a
   
 Time(der1a)  user:        1.8  user+sys:        1.8  wallclock:        0.4
  
  start of program rwr
  
  Peak memory usage:   4745 Mb
  
  end of program rwr
   
 Time(rwr)  user:       26.5  user+sys:       26.5  wallclock:        3.6
  
  start of program der1b
  
   
  forces (hartrees/bohr) : total     
   
 atom  label           x              y              z
 ---- --------   -------------  -------------  -------------
    1 C1          6.084993E-03   1.624276E-03  -1.938615E-04
    2 C2         -4.319507E-03  -1.125682E-03   4.442266E-05
    3 C3          1.587433E-03  -5.455481E-03   4.685937E-05
    4 C4          1.301410E-03  -4.377921E-03   6.891857E-05
    5 C5          3.567297E-03   3.947998E-03   7.930776E-04
    6 C6          4.322320E-03  -5.032165E-03   7.272610E-05
    7 C7         -1.519269E-03  -2.658792E-03  -1.700488E-03
    8 C8         -9.703493E-03  -3.758661E-03  -4.700632E-03
    9 C9          3.177284E-02   6.320494E-03  -1.142937E-02
   10 C10         1.685699E-02  -6.381750E-02  -7.007759E-03
   11 C11         2.226549E-02   2.757497E-02  -5.992458E-04
   12 C12        -4.191664E-03   2.920844E-02  -3.079591E-03
   13 C13         6.710986E-03   1.003950E-02  -1.840074E-03
   14 C14        -2.724367E-03  -8.834738E-03   1.464358E-03
   15 C15         6.294736E-03   3.438278E-03  -5.449386E-04
   16 C16         1.537837E-03   2.985354E-04   7.561239E-05
   17 C17        -1.935292E-03   2.645455E-03   1.407373E-05
   18 C18        -1.613377E-03  -2.713992E-03   2.320855E-05
   19 C19        -9.813694E-04   2.432491E-03   1.473758E-04
   20 C20        -1.528787E-03   1.648867E-03  -3.943237E-05
   21 H21         7.521165E-04  -3.655471E-04   3.233056E-05
   22 H22         1.064459E-03  -3.882606E-04   3.998896E-06
   23 H23        -3.337150E-03  -3.968392E-05  -5.623311E-06
   24 H24         3.426170E-04  -7.386527E-04   5.959568E-05
   25 H25         5.692067E-03  -3.099557E-03   4.302191E-04
   26 H26        -2.170722E-02  -6.119407E-03   2.621184E-02
   27 H27        -5.964326E-02   1.309338E-02   3.027404E-03
   28 H28        -6.132816E-04  -8.359268E-04  -1.357275E-03
   29 H29         2.325805E-04   1.161133E-03  -1.518841E-05
   30 H30         1.153235E-03   1.563387E-03  -4.864917E-06
   31 H31        -1.704126E-03   2.721929E-03  -1.060710E-05
   32 H32         2.751937E-03   1.147605E-03  -7.738469E-05
 -------------   -------------  -------------  -------------
     total       -1.230817E-03  -4.952301E-04  -9.031400E-05
   
  Peak memory usage:   6741 Mb
  
  end of program der1b
   
 Time(der1b)  user:       36.4  user+sys:       36.4  wallclock:        2.7
  
  start of program geopt
  
 ----------------------------------------------------------------------------
  Geometry optimization step  3
  Total energy:      -768.63268181773 hartrees
 ----------------------------------------------------------------------------
  
  
  Level shifts adjusted to satisfy step-size constraints
   Step size:    0.3000197
   Cos(theta):   0.9955440
   Final level shift:  -4.0622361E-01
  
  energy change:          -5.9895E-02 .  (  5.0000E-05 )
  gradient maximum:        1.2165E-01 .  (  4.5000E-04 )
  gradient rms:            1.5019E-02 .  (  3.0000E-04 )
  displacement maximum:    2.0551E-01 .  (  1.8000E-03 )
  displacement rms:        2.6414E-02 .  (  1.2000E-03 )
  
  predicted energy change:  -4.3756E-02
  step size:     0.30000
  trust radius:  0.30000
  
  molecular structure not yet converged...
  
  center of mass moved by:
     x:     2.1778E-02     y:    -3.3133E-03     z:    -2.1401E-03
  
  new geometry: 
                                   angstroms
  atom               x                 y                 z
  C1            3.9676867816     -1.5518505395      0.0006473702 
  C2            2.8252091303     -2.3675815286      0.0021820527 
  C3            1.5492415130     -1.8011882179      0.0029342025 
  C4            1.3543494887     -0.4002662326      0.0018622762 
  C5            2.5462159853      0.4427575728      0.0001645530 
  C6            3.8274358589     -0.1665604063      0.0000605666 
  C7            2.4583358007      1.8628252128     -0.0054789595 
  C8            1.1980400821      2.4825063073     -0.0190356005 
  C9            0.9672786659      3.9370242972     -0.0076211131 
  C10          -0.4595882006      4.5488228948     -0.0228514468 
  C11          -1.6196419853      3.5420693854     -0.0330775089 
  C12          -1.3070497394      2.1547706450     -0.0082423661 
  C13           0.0378306834      1.6441416630     -0.0068193748 
  C14           0.0669888571      0.2253243370      0.0013707436 
  C15          -1.3324001751     -0.2250081819      0.0026347754 
  C16          -2.1761870084      0.9439535326      0.0006248155 
  C17          -3.5533015455      0.8145826088      0.0022291538 
  C18          -4.1226815101     -0.4809012213      0.0055199460 
  C19          -3.3156122827     -1.6204253826      0.0067813338 
  C20          -1.9137111606     -1.4999291488      0.0048364430 
  H21           4.9545729399     -1.9987847395      0.0003565090 
  H22           2.9262894527     -3.4464624113      0.0028193589 
  H23           0.7005970643     -2.4680575721      0.0040524315 
  H24           4.7028365131      0.4738875826     -0.0008037795 
  H25           3.3316478892      2.5036077475     -0.0016970770 
  H26           0.0409392073      3.3668760986      0.1542862357 
  H27          -0.1881200280      5.6058950531      0.0133860562 
  H28          -2.6332014396      3.9239261926     -0.0403409920 
  H29          -4.2030700630      1.6824241002      0.0003737981 
  H30          -5.2026602003     -0.5840999220      0.0066565233 
  H31          -3.7554831916     -2.6114440316      0.0090488004 
  H32          -1.3222101938     -2.4049618383      0.0050554443 
   
  nuclear repulsion energy.......    1341.645485341 hartrees
  -------------------------------------------------
 /  end of geometry optimization iteration   3   /
 -------------------------------------------------
   
  Peak memory usage:   4726 Mb
  
  end of program geopt
   
 Time(geopt)  user:        6.3  user+sys:        6.3  wallclock:        0.5
  
  start of program onee
  
  smallest eigenvalue of S:    2.466E-04
  number of canonical orbitals.....          202
  Peak memory usage:   4838 Mb
  
  end of program onee
   
 Time(onee)  user:        2.0  user+sys:        2.0  wallclock:        0.5
  
  start of program probe
  
  Peak memory usage:   4756 Mb
  
  end of program probe
   
 Time(probe)  user:        1.4  user+sys:        1.4  wallclock:        0.4
  
  start of program grid
  
   grid     grid set  grid #  grid sym
  ------    --------  ------  --------
  coarse        0        0        1
  medium        2        1        1
  fine          0        0        1
  ultrafine     4        2        1
  charge       -1        3        1
  gradient      4        2        1
  density       0        0        1
  DFT-fine    -11        4        1
  DFT-med.    -10        5        1
  DFT-grad    -12        6        1
  DFT-der2      0        0        1
  DFT-cphf      0        0        1
  LMP2-enrg     4        2        1
  LMP2-grad     2        1        1
  DFT-cphf2     0        0        1
  PBF-dens      0        0        1
  plotting      0        0        1
  Rel-grad    -17        0        1
  
  number of gridpoints: 
     atom        C1       C2       C3       C4       C5       C6       C7
  grid # 1       97       97       97       99      101       97       97
  grid # 2      338      336      340      366      367      338      336
  grid # 3      230      230      230      255      258      228      235
  grid # 4     4304     4304     4304     4304     4304     4304     4304
  grid # 5     1192     1192     1192     1192     1192     1192     1192
  grid # 6     5226     5226     5226     5226     5226     5226     5226
   
  number of gridpoints: 
     atom        C8       C9      C10      C11      C12      C13      C14
  grid # 1      100      103       96       96       99      100      100
  grid # 2      350      403      343      340      365      354      367
  grid # 3      230      633      233      223      241      238      264
  grid # 4     4304     4304     4304     4304     4304     4304     4304
  grid # 5     1192     1192     1192     1192     1192     1192     1192
  grid # 6     5226     5226     5226     5226     5226     5226     5226
   
  number of gridpoints: 
     atom       C15      C16      C17      C18      C19      C20      H21
  grid # 1      102      102       97       97       97       97      118
  grid # 2      362      361      339      339      337      338      451
  grid # 3      264      258      228      234      230      232     1339
  grid # 4     4304     4304     4304     4304     4304     4304     4304
  grid # 5     1192     1192     1192     1192     1192     1192     1192
  grid # 6     5226     5226     5226     5226     5226     5226     5226
   
  number of gridpoints: 
     atom       H22      H23      H24      H25      H26      H27      H28
  grid # 1      118      112      116      118       90      116      115
  grid # 2      451      423      442      442      349      456      453
  grid # 3     1333      707     1126     1126      233     1505     1193
  grid # 4     4304     4304     4304     4304     4304     4304     4304
  grid # 5     1192     1192     1192     1192     1192     1192     1192
  grid # 6     5226     5226     5226     5226     5226     5226     5226
   
  number of gridpoints: 
     atom       H29      H30      H31      H32    total
  grid # 1      115      118      118      112     3337
  grid # 2      447      451      449      427    12260
  grid # 3     1083     1331     1335      820    18305
  grid # 4     4304     4304     4304     4304   137728
  grid # 5     1192     1192     1192     1192    38144
  grid # 6     5226     5226     5226     5226   167232
   
  Peak memory usage:   4785 Mb
  
  end of program grid
   
 Time(grid)  user:       14.2  user+sys:       14.2  wallclock:        2.1
  
  start of program rwr
  
  Peak memory usage:   4745 Mb
  
  end of program rwr
   
 Time(rwr)  user:       34.0  user+sys:       34.0  wallclock:        3.1
  
  start of program scf
  
 Energy computed with NOPS off.
  
       i  u  d  i  g                   
       t  p  i  c  r                                 RMS    maximum
       e  d  i  u  i                       energy  density   DIIS  
       r  t  s  t  d       total energy    change  change    error 
  
etot    1  N  N  2  U    -768.66399905124           1.5E-03  1.0E-02
etot    2  Y  Y  6  M    -768.67149802998  7.5E-03  7.8E-04  9.7E-03
etot    3  N  Y  2  U    -768.66967231902 -1.8E-03  4.6E-04  1.3E-02
etot    4  Y  Y  6  M    -768.67420483244  4.5E-03  6.4E-05  9.4E-04
etot    5  Y  Y  6  M    -768.67426124003  5.6E-05  2.7E-05  3.6E-04
etot    6  N  Y  2  U    -768.67434528029  8.4E-05  1.5E-05  2.4E-04
etot    7  N  Y  2  U    -768.67434731470  2.0E-06  1.4E-05  1.3E-04
etot    8  N  Y  2  U    -768.67434865179  1.3E-06  1.5E-05  1.1E-04
etot    9  N  Y  2  U    -768.67434970656  1.1E-06  7.2E-06  6.0E-05
etot   10  N  Y  2  U    -768.67435011745  4.1E-07  4.4E-06  3.5E-05
etot   11  N  N  2  U    -768.67435021797  1.0E-07  0.0E+00  0.0E+00
  
  
 Energy components, in hartrees:
   (A)  Nuclear repulsion............    1341.64548534098
   (E)  Total one-electron terms.....   -3681.01557294914
   (I)  Total two-electron terms.....    1570.69573739019
   (L)  Electronic energy............   -2110.31983555895  (E+I)
   (N)  Total energy.................    -768.67435021797  (A+L)
   (O)  Gas phase energy.............    -768.67435021797
  
                                 Total             Coulomb       Exchange+Corr.
 Total two-electron terms    1570.69573739019    1683.30518119922    -112.60944380903
   Hamiltonian  1........     807.36353561916     847.46183201335     -40.09829639419
   Hamiltonian  2........     796.09722665252     835.84334918587     -39.74612253335
  
 SCFE: SCF energy: UDFT(b3lyp)      -768.67435021797 hartrees   iterations:  11
  
 
 Alpha HOMO energy:    -0.35526
 Alpha LUMO energy:    -0.24712
 
  Alpha Orbital energies (hartrees): 
   -10.40090   -10.38459   -10.37975   -10.37820   -10.37420   -10.37272
   -10.36889   -10.36423   -10.35567   -10.35258   -10.35181   -10.34976
   -10.34709   -10.34708   -10.34662   -10.34412   -10.34129   -10.33471
   -10.33151   -10.32365    -1.09829    -1.04042    -1.02198    -0.97859
    -0.96358    -0.93414    -0.90810    -0.90004    -0.87654    -0.86719
    -0.82219    -0.79625    -0.76724    -0.75692    -0.73701    -0.72181
    -0.70548    -0.68386    -0.65925    -0.64294    -0.63045    -0.62816
    -0.61234    -0.60060    -0.59144    -0.58232    -0.57864    -0.57180
    -0.56647    -0.56462    -0.53784    -0.53164    -0.53096    -0.50996
    -0.50581    -0.50127    -0.48749    -0.47805    -0.46787    -0.46565
    -0.42756    -0.40456    -0.40327    -0.37110    -0.36726    -0.35526
    -0.24712    -0.18253    -0.16784    -0.15303    -0.13026    -0.09607
    -0.09036    -0.05200    -0.04420    -0.02259
 
 
 Beta HOMO energy:    -0.35784
 Beta LUMO energy:    -0.30655
 
  Beta Orbital energies (hartrees): 
   -10.39957   -10.38457   -10.37872   -10.37631   -10.37132   -10.37086
   -10.36961   -10.36481   -10.35579   -10.35108   -10.35010   -10.34829
   -10.34783   -10.34687   -10.34641   -10.34360   -10.33947   -10.33436
   -10.33010   -10.32430    -1.09622    -1.03743    -1.01983    -0.97509
    -0.95971    -0.93006    -0.90753    -0.89670    -0.87469    -0.86183
    -0.81901    -0.79416    -0.76510    -0.75539    -0.73513    -0.71996
    -0.70311    -0.68260    -0.65721    -0.64132    -0.62932    -0.62725
    -0.61073    -0.59924    -0.59033    -0.58135    -0.57140    -0.57034
    -0.56538    -0.56352    -0.53674    -0.53030    -0.52527    -0.50537
    -0.50405    -0.50022    -0.48613    -0.47744    -0.45767    -0.45239
    -0.41746    -0.40430    -0.39148    -0.36893    -0.35784    -0.30655
    -0.23061    -0.17759    -0.15962    -0.14505    -0.12333    -0.08711
    -0.08083    -0.05056    -0.04304
 
  
  
    Unrestricted Spin Properties ...
    Sz*(Sz+1)      0.750
    <S**2> ...     0.766
  
  
  Peak memory usage:   6747 Mb
  
  end of program scf
   
 Time(scf)  user:      168.1  user+sys:      168.1  wallclock:       12.1
  
  start of program der1a
  
  Peak memory usage:   4838 Mb
  
  end of program der1a
   
 Time(der1a)  user:        2.5  user+sys:        2.5  wallclock:        0.5
  
  start of program rwr
  
  Peak memory usage:   4745 Mb
  
  end of program rwr
   
 Time(rwr)  user:       26.9  user+sys:       26.9  wallclock:        3.4
  
  start of program der1b
  
   
  forces (hartrees/bohr) : total     
   
 atom  label           x              y              z
 ---- --------   -------------  -------------  -------------
    1 C1          2.335569E-03   2.684430E-03  -1.634327E-04
    2 C2         -3.684841E-03   8.876573E-04   4.728649E-05
    3 C3          1.121638E-03  -3.093885E-03   5.380432E-05
    4 C4         -3.125176E-04  -2.107477E-03   2.245612E-05
    5 C5          9.598110E-04   4.505385E-03   5.526084E-04
    6 C6          4.987451E-04  -1.501923E-03   9.897389E-05
    7 C7         -4.350241E-03  -1.688534E-03  -1.866475E-03
    8 C8         -2.498477E-03  -3.844710E-03  -4.703468E-03
    9 C9          1.123792E-02   9.638457E-03  -1.161950E-02
   10 C10         1.975035E-02  -4.666914E-02  -7.147142E-03
   11 C11         2.384732E-02   3.719464E-02  -1.329735E-03
   12 C12        -8.121142E-03   4.909580E-03  -4.422719E-03
   13 C13         4.661489E-04   1.505495E-03  -1.905978E-03
   14 C14         3.295767E-04  -2.682488E-03   1.234234E-03
   15 C15         2.000897E-03   2.242557E-03  -4.078370E-04
   16 C16         3.705110E-03  -1.652133E-04   4.834945E-05
   17 C17        -4.145316E-04   1.503916E-03   9.393775E-05
   18 C18        -1.230320E-03  -2.735167E-03   3.613556E-05
   19 C19         7.449422E-04   1.441483E-03   1.191583E-04
   20 C20        -1.506236E-03   9.400371E-04   9.559174E-06
   21 H21         2.224879E-04   4.813733E-05   2.375000E-05
   22 H22         5.447675E-04  -1.554205E-04  -4.383552E-06
   23 H23        -1.961627E-03   1.785625E-04   5.131135E-06
   24 H24         4.819184E-04  -5.374883E-04   4.167262E-05
   25 H25         3.415964E-03  -2.659576E-03   5.579280E-04
   26 H26        -8.711953E-03   3.173135E-04   2.917628E-02
   27 H27        -3.933382E-02   5.044337E-04   2.555352E-03
   28 H28        -1.209988E-03  -2.601908E-03  -1.130400E-03
   29 H29         1.046928E-04   3.225550E-04  -2.190913E-05
   30 H30         5.406490E-04  -4.493197E-07  -1.218291E-05
   31 H31        -1.319389E-03   1.217501E-03  -1.615150E-05
   32 H32         1.381983E-03   1.535940E-04  -7.382976E-05
 -------------   -------------  -------------  -------------
     total       -9.645893E-04  -2.476445E-04  -1.485250E-04
   
  Peak memory usage:   6741 Mb
  
  end of program der1b
   
 Time(der1b)  user:       37.0  user+sys:       37.0  wallclock:        2.7
  
  start of program geopt
  
 ----------------------------------------------------------------------------
  Geometry optimization step  4
  Total energy:      -768.67435021797 hartrees
 ----------------------------------------------------------------------------
  
  
  Level shifts adjusted to satisfy step-size constraints
   Step size:    0.3000038
   Cos(theta):   0.9705901
   Final level shift:  -1.8997652E-01
  
  energy change:          -4.1668E-02 .  (  5.0000E-05 )
  gradient maximum:        7.8728E-02 .  (  4.5000E-04 )
  gradient rms:            9.5868E-03 .  (  3.0000E-04 )
  displacement maximum:    1.8583E-01 .  (  1.8000E-03 )
  displacement rms:        2.6406E-02 .  (  1.2000E-03 )
  
  predicted energy change:  -2.4401E-02
  step size:     0.29991
  trust radius:  0.30000
  
  molecular structure not yet converged...
  
  center of mass moved by:
     x:     1.6552E-02     y:     1.7133E-03     z:    -3.2275E-03
  
  new geometry: 
                                   angstroms
  atom               x                 y                 z
  C1            3.9726981827     -1.5689078977     -0.0004395195 
  C2            2.8238049075     -2.3828352485      0.0026875998 
  C3            1.5503532931     -1.8129067480      0.0042337854 
  C4            1.3624266082     -0.4080745572      0.0022437926 
  C5            2.5568349432      0.4377239009     -0.0012479665 
  C6            3.8382979651     -0.1835109432     -0.0017759848 
  C7            2.4703768056      1.8616732430     -0.0078972303 
  C8            1.2070479013      2.4957254715     -0.0222425502 
  C9            0.9546853363      3.9612155528      0.0007126735 
  C10          -0.5053806249      4.4766735214     -0.0317115995 
  C11          -1.6182342894      3.5239262605     -0.0430724494 
  C12          -1.2984402123      2.1525732771     -0.0105818145 
  C13           0.0510813856      1.6477370028     -0.0068846501 
  C14           0.0763357026      0.2227245198      0.0033436714 
  C15          -1.3264941831     -0.2196289851      0.0049420101 
  C16          -2.1635704951      0.9504219549      0.0007079766 
  C17          -3.5424566476      0.8457747723      0.0023320074 
  C18          -4.1285136553     -0.4412879718      0.0079411255 
  C19          -3.3319196230     -1.5861679738      0.0112742076 
  C20          -1.9247959406     -1.4851213683      0.0091458493 
  H21           4.9581391977     -2.0201925158     -0.0011727405 
  H22           2.9252792364     -3.4620429363      0.0038523765 
  H23           0.6923418347     -2.4707939750      0.0066496454 
  H24           4.7184103018      0.4503821722     -0.0035273975 
  H25           3.3612483932      2.4807751839     -0.0017425569 
  H26           0.0427835448      3.3418917431      0.2290074712 
  H27          -0.5065075265      5.5564859889      0.0140669907 
  H28          -2.6344977880      3.8992657383     -0.0675533904 
  H29          -4.1750883128      1.7266473956     -0.0014676005 
  H30          -5.2089886664     -0.5288349107      0.0090050085 
  H31          -3.7888417624     -2.5682602899      0.0151299965 
  H32          -1.3381236246     -2.3941917186      0.0106097680 
   
  nuclear repulsion energy.......    1342.551112466 hartrees
  -------------------------------------------------
 /  end of geometry optimization iteration   4   /
 -------------------------------------------------
   
  Peak memory usage:   4726 Mb
  
  end of program geopt
   
 Time(geopt)  user:        6.0  user+sys:        6.0  wallclock:        0.5
  
  start of program onee
  
  smallest eigenvalue of S:    2.536E-04
  number of canonical orbitals.....          202
  Peak memory usage:   4838 Mb
  
  end of program onee
   
 Time(onee)  user:        2.4  user+sys:        2.4  wallclock:        0.5
  
  start of program probe
  
  Peak memory usage:   4756 Mb
  
  end of program probe
   
 Time(probe)  user:        1.4  user+sys:        1.4  wallclock:        0.4
  
  start of program grid
  
   grid     grid set  grid #  grid sym
  ------    --------  ------  --------
  coarse        0        0        1
  medium        2        1        1
  fine          0        0        1
  ultrafine     4        2        1
  charge       -1        3        1
  gradient      4        2        1
  density       0        0        1
  DFT-fine    -11        4        1
  DFT-med.    -10        5        1
  DFT-grad    -12        6        1
  DFT-der2      0        0        1
  DFT-cphf      0        0        1
  LMP2-enrg     4        2        1
  LMP2-grad     2        1        1
  DFT-cphf2     0        0        1
  PBF-dens      0        0        1
  plotting      0        0        1
  Rel-grad    -17        0        1
  
  number of gridpoints: 
     atom        C1       C2       C3       C4       C5       C6       C7
  grid # 1       97       97       97      100      101       97       97
  grid # 2      339      338      341      367      369      339      338
  grid # 3      231      230      231      256      259      228      238
  grid # 4     4304     4304     4304     4304     4304     4304     4304
  grid # 5     1192     1192     1192     1192     1192     1192     1192
  grid # 6     5226     5226     5226     5226     5226     5226     5226
   
  number of gridpoints: 
     atom        C8       C9      C10      C11      C12      C13      C14
  grid # 1      100      106       94       95       99      102      100
  grid # 2      354      418      333      333      360      354      361
  grid # 3      230      703      192      213      240      231      264
  grid # 4     4304     4304     4304     4304     4304     4304     4304
  grid # 5     1192     1192     1192     1192     1192     1192     1192
  grid # 6     5226     5226     5226     5226     5226     5226     5226
   
  number of gridpoints: 
     atom       C15      C16      C17      C18      C19      C20      H21
  grid # 1      102      102       97       97       97       97      118
  grid # 2      365      360      339      339      339      338      451
  grid # 3      262      258      232      233      232      232     1336
  grid # 4     4304     4304     4304     4304     4304     4304     4304
  grid # 5     1192     1192     1192     1192     1192     1192     1192
  grid # 6     5226     5226     5226     5226     5226     5226     5226
   
  number of gridpoints: 
     atom       H22      H23      H24      H25      H26      H27      H28
  grid # 1      118      112      115      118       88      118      115
  grid # 2      451      425      442      442      351      458      451
  grid # 3     1329      715     1118     1140      251     1496     1139
  grid # 4     4304     4304     4304     4304     4304     4304     4304
  grid # 5     1192     1192     1192     1192     1192     1192     1192
  grid # 6     5226     5226     5226     5226     5226     5226     5226
   
  number of gridpoints: 
     atom       H29      H30      H31      H32    total
  grid # 1      115      118      118      112     3339
  grid # 2      447      451      451      431    12275
  grid # 3     1058     1332     1329      824    18262
  grid # 4     4304     4304     4304     4304   137728
  grid # 5     1192     1192     1192     1192    38144
  grid # 6     5226     5226     5226     5226   167232
   
  Peak memory usage:   4785 Mb
  
  end of program grid
   
 Time(grid)  user:       13.6  user+sys:       13.6  wallclock:        1.4
  
  start of program rwr
  
  Peak memory usage:   4745 Mb
  
  end of program rwr
   
 Time(rwr)  user:       34.3  user+sys:       34.3  wallclock:        3.0
  
  start of program scf
  
 Energy computed with NOPS off.
  
       i  u  d  i  g                   
       t  p  i  c  r                                 RMS    maximum
       e  d  i  u  i                       energy  density   DIIS  
       r  t  s  t  d       total energy    change  change    error 
  
etot    1  N  N  2  U    -768.68972863688           1.5E-03  9.6E-03
etot    2  Y  Y  6  M    -768.69617262921  6.4E-03  6.2E-04  6.7E-03
etot    3  N  Y  2  U    -768.69492641246 -1.2E-03  3.8E-04  8.7E-03
etot    4  Y  Y  6  M    -768.69783692833  2.9E-03  7.2E-05  1.5E-03
etot    5  Y  Y  6  M    -768.69790908055  7.2E-05  3.8E-05  4.5E-04
etot    6  N  Y  2  U    -768.69798369936  7.5E-05  2.5E-05  2.4E-04
etot    7  N  Y  2  U    -768.69798907994  5.4E-06  2.5E-05  1.7E-04
etot    8  N  Y  2  U    -768.69799398818  4.9E-06  3.8E-05  1.5E-04
etot    9  N  Y  2  U    -768.69799893674  4.9E-06  2.5E-05  1.0E-04
etot   10  N  Y  2  U    -768.69800102680  2.1E-06  1.3E-05  4.2E-05
etot   11  N  Y  2  U    -768.69800140661  3.8E-07  7.6E-06  3.5E-05
etot   12  N  Y  2  U    -768.69800151941  1.1E-07  1.3E-06  9.5E-06
etot   13  N  N  2  U    -768.69800153671  1.7E-08  0.0E+00  0.0E+00
  
  
 Energy components, in hartrees:
   (A)  Nuclear repulsion............    1342.55111246584
   (E)  Total one-electron terms.....   -3682.82557343797
   (I)  Total two-electron terms.....    1571.57645943542
   (L)  Electronic energy............   -2111.24911400255  (E+I)
   (N)  Total energy.................    -768.69800153671  (A+L)
   (O)  Gas phase energy.............    -768.69800153671
  
                                 Total             Coulomb       Exchange+Corr.
 Total two-electron terms    1571.57645943542    1684.20258046884    -112.62612103342
   Hamiltonian  1........     807.78116248206     847.88595627445     -40.10479379239
   Hamiltonian  2........     796.56470208446     836.31662419439     -39.75192210993
  
 SCFE: SCF energy: UDFT(b3lyp)      -768.69800153671 hartrees   iterations:  13
  
 
 Alpha HOMO energy:    -0.35493
 Alpha LUMO energy:    -0.24975
 
  Alpha Orbital energies (hartrees): 
   -10.39531   -10.38276   -10.38046   -10.37545   -10.37527   -10.37038
   -10.36947   -10.36581   -10.36038   -10.35610   -10.35192   -10.35136
   -10.34690   -10.34579   -10.34419   -10.34343   -10.34138   -10.33462
   -10.33000   -10.32363    -1.10181    -1.04001    -1.02094    -0.97817
    -0.96335    -0.93362    -0.91178    -0.89974    -0.87549    -0.86637
    -0.82574    -0.79483    -0.76538    -0.75735    -0.73739    -0.72477
    -0.70366    -0.68418    -0.65810    -0.64083    -0.63337    -0.62770
    -0.61493    -0.59910    -0.59175    -0.58228    -0.57909    -0.57256
    -0.56678    -0.56329    -0.54096    -0.53321    -0.53094    -0.51272
    -0.50521    -0.50161    -0.48809    -0.47791    -0.47126    -0.46466
    -0.42932    -0.40659    -0.40275    -0.37762    -0.36677    -0.35493
    -0.24975    -0.17828    -0.16960    -0.15220    -0.13003    -0.09766
    -0.08890    -0.05020    -0.04509    -0.02366
 
 
 Beta HOMO energy:    -0.35718
 Beta LUMO energy:    -0.30591
 
  Beta Orbital energies (hartrees): 
   -10.39418   -10.38333   -10.37708   -10.37520   -10.37224   -10.37017
   -10.36885   -10.36638   -10.35804   -10.35634   -10.35053   -10.34973
   -10.34672   -10.34656   -10.34368   -10.34333   -10.33961   -10.33411
   -10.32881   -10.32416    -1.09956    -1.03702    -1.01892    -0.97492
    -0.95968    -0.92945    -0.91118    -0.89652    -0.87332    -0.86145
    -0.82269    -0.79277    -0.76341    -0.75564    -0.73560    -0.72297
    -0.70131    -0.68289    -0.65610    -0.63921    -0.63229    -0.62649
    -0.61342    -0.59775    -0.59072    -0.58135    -0.57247    -0.57096
    -0.56556    -0.56246    -0.53959    -0.53199    -0.52548    -0.50736
    -0.50420    -0.50053    -0.48683    -0.47731    -0.46175    -0.45210
    -0.41940    -0.40657    -0.39168    -0.37117    -0.35718    -0.30591
    -0.23269    -0.17417    -0.16072    -0.14459    -0.12337    -0.08795
    -0.08023    -0.04926    -0.04391
 
  
  
    Unrestricted Spin Properties ...
    Sz*(Sz+1)      0.750
    <S**2> ...     0.769
  
  
  Peak memory usage:   6747 Mb
  
  end of program scf
   
 Time(scf)  user:      198.7  user+sys:      198.7  wallclock:       14.3
  
  start of program der1a
  
  Peak memory usage:   4838 Mb
  
  end of program der1a
   
 Time(der1a)  user:        2.2  user+sys:        2.2  wallclock:        0.4
  
  start of program rwr
  
  Peak memory usage:   4745 Mb
  
  end of program rwr
   
 Time(rwr)  user:       27.0  user+sys:       27.0  wallclock:        3.3
  
  start of program der1b
  
   
  forces (hartrees/bohr) : total     
   
 atom  label           x              y              z
 ---- --------   -------------  -------------  -------------
    1 C1         -2.136445E-04   2.921492E-03  -1.463456E-04
    2 C2         -2.773023E-03   1.613247E-03   4.642100E-05
    3 C3          9.418836E-04  -1.777593E-03   5.340802E-05
    4 C4         -1.644533E-03  -6.646973E-05   8.712303E-05
    5 C5         -5.341251E-04   3.671021E-03   3.193331E-04
    6 C6         -1.376042E-03   3.449251E-04   4.563995E-05
    7 C7         -5.275058E-03  -6.379281E-05  -1.850726E-03
    8 C8          6.207729E-04  -4.060635E-03  -4.848033E-03
    9 C9          2.658591E-04   6.388308E-03  -1.489296E-02
   10 C10         1.826137E-02  -2.003304E-02  -6.939594E-03
   11 C11         1.062144E-02   2.175215E-02  -4.486579E-03
   12 C12        -7.263585E-03  -1.073459E-02  -5.450622E-03
   13 C13        -2.903683E-03  -1.900367E-03  -2.192002E-03
   14 C14         3.523516E-03   1.922845E-03   1.045753E-03
   15 C15        -1.362668E-03   3.771331E-04  -4.875005E-04
   16 C16         3.578384E-03   5.611512E-04   1.003928E-04
   17 C17         9.863467E-05   3.045301E-04   1.009208E-04
   18 C18        -6.016912E-04  -1.651080E-03   3.016105E-05
   19 C19         1.350809E-03   6.039385E-04   1.488613E-04
   20 C20        -9.247507E-04   5.827143E-04   4.486127E-06
   21 H21        -1.371985E-04   1.936693E-04   3.181398E-05
   22 H22         2.031574E-04   4.547054E-05  -8.025786E-06
   23 H23        -3.737806E-04   5.318619E-04   1.020442E-05
   24 H24         4.157519E-04  -2.402465E-04   2.205698E-05
   25 H25         1.141008E-03  -1.706019E-03   7.059481E-04
   26 H26        -2.849805E-04   4.839988E-03   3.637957E-02
   27 H27        -1.462719E-02  -9.184567E-04   3.119458E-03
   28 H28        -8.741093E-04  -2.441797E-03  -9.268785E-04
   29 H29        -1.888529E-05  -1.156093E-04  -1.089924E-05
   30 H30         5.679130E-05  -7.458210E-04  -1.017025E-05
   31 H31        -7.101816E-04   3.567298E-05  -2.432585E-05
   32 H32         2.152199E-05  -2.111497E-04  -6.958334E-05
 -------------   -------------  -------------  -------------
     total       -7.982264E-04   2.345560E-05  -9.269470E-05
   
  Peak memory usage:   6741 Mb
  
  end of program der1b
   
 Time(der1b)  user:       36.8  user+sys:       36.8  wallclock:        2.7
  
  start of program geopt
  
 ----------------------------------------------------------------------------
  Geometry optimization step  5
  Total energy:      -768.69800153671 hartrees
 ----------------------------------------------------------------------------
  
  
  Level shifts adjusted to satisfy step-size constraints
   Step size:    0.3009364
   Cos(theta):   0.8754655
   Final level shift:  -1.0013367E-01
  
  energy change:          -2.3651E-02 .  (  5.0000E-05 )
  gradient maximum:        2.9575E-02 .  (  4.5000E-04 )
  gradient rms:            5.3367E-03 .  (  3.0000E-04 )
  displacement maximum:    1.4729E-01 .  (  1.8000E-03 )
  displacement rms:        2.6473E-02 .  (  1.2000E-03 )
  
  predicted energy change:  -1.2511E-02
  step size:     0.30067
  trust radius:  0.30000
  
  molecular structure not yet converged...
  
  center of mass moved by:
     x:     6.7916E-03     y:     1.1866E-03     z:    -4.1774E-03
  
  new geometry: 
                                   angstroms
  atom               x                 y                 z
  C1            3.9686428247     -1.5696683927     -0.0049319820 
  C2            2.8174381561     -2.3851555437      0.0027689467 
  C3            1.5455753879     -1.8172390588      0.0072981182 
  C4            1.3607402188     -0.4102714468      0.0037710034 
  C5            2.5543014793      0.4374749570     -0.0043883624 
  C6            3.8363568933     -0.1860233211     -0.0076554840 
  C7            2.4693448486      1.8596297968     -0.0125073592 
  C8            1.2098848782      2.5019407861     -0.0241341153 
  C9            0.9657604269      3.9767887058      0.0158237021 
  C10          -0.5011194860      4.4401514340     -0.0391629998 
  C11          -1.6006719603      3.5205800729     -0.0587521556 
  C12          -1.2983865840      2.1475721995     -0.0142043788 
  C13           0.0525876593      1.6512740824     -0.0047985453 
  C14           0.0789393520      0.2242913213      0.0077118297 
  C15          -1.3255622759     -0.2174913864      0.0086021761 
  C16          -2.1610329226      0.9506069629      0.0000644410 
  C17          -3.5412931226      0.8530285435      0.0003800970 
  C18          -4.1319750493     -0.4320995038      0.0092551534 
[...]
  Total energy:      -768.96369580803 hartrees
 ----------------------------------------------------------------------------
  
  energy change:          -1.6176E-05 *  (  5.0000E-05 )
  gradient maximum:        3.1392E-04 *  (  4.5000E-04 )
  gradient rms:            8.8922E-05 *  (  3.0000E-04 )
  displacement maximum:    4.5698E-03 .  (  1.8000E-03 )
  displacement rms:        9.3406E-04 *  (  1.2000E-03 )
  
  predicted energy change:  -3.0644E-06
  step size:     0.01061
  trust radius:  0.30000
  
  molecular structure not yet converged...
  
  center of mass moved by:
     x:    -3.2179E-05     y:    -7.2461E-05     z:     8.6291E-04
  
  new geometry: 
                                   angstroms
  atom               x                 y                 z
  C1            3.9764962209     -1.4912649294      0.0218001862 
  C2            2.8478343547     -2.3305858919     -0.0079106779 
  C3            1.5617770831     -1.7910034702     -0.0184617188 
  C4            1.3509803711     -0.3918427025     -0.0000269317 
  C5            2.5198284221      0.4766645822      0.0297383537 
  C6            3.8127693202     -0.1096714960      0.0402105476 
  C7            2.3960087673      1.8923692360      0.0484959585 
  C8            1.1296499988      2.5190456644      0.0382774038 
  C9            0.8749399973      3.9224636442      0.0572017660 
  C10          -0.4383358561      4.3842791554      0.0465362048 
  C11          -1.5517421181      3.4987414467      0.0163331833 
  C12          -1.3226070580      2.1282137803     -0.0034821579 
  C13           0.0103827664      1.6632817151      0.0078605756 
  C14           0.0667524536      0.2329480211     -0.0099164901 
  C15          -1.3217262863     -0.2348457150     -0.0340376383 
  C16          -2.1801531828      0.9209418714     -0.0306591822 
  C17          -3.5559441347      0.7830478800     -0.0502573136 
  C18          -4.1125812086     -0.5187670982     -0.0735435674 
  C19          -3.2909489709     -1.6483968347     -0.0764488377 
  C20          -1.8924016186     -1.5168031203     -0.0565845224 
  H21           4.9712667632     -1.9211204096      0.0297911061 
  H22           2.9776199620     -3.4067010473     -0.0230741191 
  H23           0.7156412555     -2.4628720661     -0.0429349079 
  H24           4.6820978875      0.5393221587      0.0625539472 
  H25           3.3006319572      2.4929897048      0.0717475093 
  H26           1.7011727608      4.6244795512      0.0777783040 
  H27          -0.6239740024      5.4521187238      0.0621839448 
  H28          -2.5556397232      3.9083823796      0.0089400423 
  H29          -4.2087904168      1.6487393060     -0.0480298253 
  H30          -5.1902331179     -0.6364398344     -0.0889570450 
  H31          -3.7335033257     -2.6373453204     -0.0937984910 
  H32          -1.2855769335     -2.4126924978     -0.0583181901 
   
  nuclear repulsion energy.......    1346.034362045 hartrees
  -------------------------------------------------
 /  end of geometry optimization iteration  30   /
 -------------------------------------------------
   
  Peak memory usage:   4726 Mb
  
  end of program geopt
   
 Time(geopt)  user:        6.9  user+sys:        6.9  wallclock:        0.6
  
  start of program onee
  
  smallest eigenvalue of S:    2.246E-04
  number of canonical orbitals.....          201
  Peak memory usage:   4838 Mb
  
  end of program onee
   
 Time(onee)  user:        2.7  user+sys:        2.7  wallclock:        0.4
  
  start of program probe
  
  Peak memory usage:   4756 Mb
  
  end of program probe
   
 Time(probe)  user:        1.8  user+sys:        1.8  wallclock:        0.4
  
  start of program grid
  
   grid     grid set  grid #  grid sym
  ------    --------  ------  --------
  coarse        0        0        1
  medium        2        1        1
  fine          0        0        1
  ultrafine     4        2        1
  charge       -1        3        1
  gradient      4        2        1
  density       0        0        1
  DFT-fine    -11        4        1
  DFT-med.    -10        5        1
  DFT-grad    -12        6        1
  DFT-der2      0        0        1
  DFT-cphf      0        0        1
  LMP2-enrg     4        2        1
  LMP2-grad     2        1        1
  DFT-cphf2     0        0        1
  PBF-dens      0        0        1
  plotting      0        0        1
  Rel-grad    -17        0        1
  
  number of gridpoints: 
     atom        C1       C2       C3       C4       C5       C6       C7
  grid # 1       97       97       97       99      101       97       97
  grid # 2      339      339      341      366      369      339      339
  grid # 3      231      231      231      254      258      230      232
  grid # 4     4304     4304     4304     4304     4304     4304     4304
  grid # 5     1192     1192     1192     1192     1192     1192     1192
  grid # 6     5226     5226     5226     5226     5226     5226     5226
   
  number of gridpoints: 
     atom        C8       C9      C10      C11      C12      C13      C14
  grid # 1      100       97       97       97       99       97      102
  grid # 2      362      339      339      340      363      361      363
  grid # 3      244      230      230      230      255      242      263
  grid # 4     4304     4304     4304     4304     4304     4304     4304
  grid # 5     1192     1192     1192     1192     1192     1192     1192
  grid # 6     5226     5226     5226     5226     5226     5226     5226
   
  number of gridpoints: 
     atom       C15      C16      C17      C18      C19      C20      H21
  grid # 1      100      102       97       97       97       97      118
  grid # 2      364      357      339      339      337      335      451
  grid # 3      264      264      230      234      230      233     1336
  grid # 4     4304     4304     4304     4304     4304     4304     4304
  grid # 5     1192     1192     1192     1192     1192     1192     1192
  grid # 6     5226     5226     5226     5226     5226     5226     5226
   
  number of gridpoints: 
     atom       H22      H23      H24      H25      H26      H27      H28
  grid # 1      118      112      115      115      118      118      115
  grid # 2      451      424      442      437      446      451      447
  grid # 3     1331      708     1118      983     1199     1319     1119
  grid # 4     4304     4304     4304     4304     4304     4304     4304
  grid # 5     1192     1192     1192     1192     1192     1192     1192
  grid # 6     5226     5226     5226     5226     5226     5226     5226
   
  number of gridpoints: 
     atom       H29      H30      H31      H32    total
  grid # 1      115      118      118      112     3356
  grid # 2      447      451      451      427    12295
  grid # 3     1105     1328     1326      811    18499
  grid # 4     4304     4304     4304     4304   137728
  grid # 5     1192     1192     1192     1192    38144
  grid # 6     5226     5226     5226     5226   167232
   
  Peak memory usage:   4785 Mb
  
  end of program grid
   
 Time(grid)  user:       16.8  user+sys:       16.8  wallclock:        1.7
  
  start of program rwr
  
  Peak memory usage:   4745 Mb
  
  end of program rwr
   
 Time(rwr)  user:       31.7  user+sys:       31.7  wallclock:        3.0
  
  start of program scf
  
 Energy computed with NOPS off.
  
       i  u  d  i  g                   
       t  p  i  c  r                                 RMS    maximum
       e  d  i  u  i                       energy  density   DIIS  
       r  t  s  t  d       total energy    change  change    error 
  
etot    1  N  N  2  U    -768.96369199672           3.1E-05  3.1E-04
etot    2  N  Y  2  U    -768.96370602905  1.4E-05  5.4E-06  4.2E-05
etot    3  N  Y  2  U    -768.96370602433 -4.7E-09  3.5E-06  6.9E-05
etot    4  N  N  2  U    -768.96370629547  2.7E-07  0.0E+00  0.0E+00
  
  
 Energy components, in hartrees:
   (A)  Nuclear repulsion............    1346.03436204496
   (E)  Total one-electron terms.....   -3691.44246785442
   (I)  Total two-electron terms.....    1576.44439951399
   (L)  Electronic energy............   -2114.99806834043  (E+I)
   (N)  Total energy.................    -768.96370629547  (A+L)
   (O)  Gas phase energy.............    -768.96370629547
  
                                 Total             Coulomb       Exchange+Corr.
 Total two-electron terms    1576.44439951399    1689.20326014122    -112.75886062723
   Hamiltonian  1........     810.34907846683     850.50152204664     -40.15244357980
   Hamiltonian  2........     798.89909786632     838.70173809458     -39.80264022826
  
 SCFE: SCF energy: UDFT(b3lyp)      -768.96370629547 hartrees   iterations:   4
  
 
 Alpha HOMO energy:    -0.34926
 Alpha LUMO energy:    -0.23856
 
  Alpha Orbital energies (hartrees): 
   -10.37317   -10.37045   -10.36062   -10.35747   -10.35075   -10.34817
   -10.34795   -10.34428   -10.34260   -10.34244   -10.34116   -10.33993
   -10.33983   -10.33668   -10.33606   -10.33593   -10.33539   -10.32708
   -10.32639   -10.31769    -1.05710    -1.01747    -0.99676    -0.95924
    -0.95610    -0.92099    -0.89687    -0.89174    -0.86397    -0.85691
    -0.80710    -0.78735    -0.76073    -0.75442    -0.72443    -0.71931
    -0.69135    -0.67373    -0.65014    -0.64083    -0.61955    -0.61722
    -0.60796    -0.59082    -0.58329    -0.57659    -0.57036    -0.56733
    -0.55935    -0.55619    -0.54605    -0.52471    -0.52366    -0.50717
    -0.50402    -0.49249    -0.49164    -0.47778    -0.46812    -0.46016
    -0.45825    -0.42220    -0.39753    -0.39181    -0.36113    -0.34926
    -0.23856    -0.16250    -0.15680    -0.14395    -0.11201    -0.08460
    -0.07664    -0.04098    -0.02455    -0.01585
 
 
 Beta HOMO energy:    -0.35749
 Beta LUMO energy:    -0.29819
 
  Beta Orbital energies (hartrees): 
   -10.36960   -10.36620   -10.36116   -10.35823   -10.35151   -10.34642
   -10.34629   -10.34348   -10.34226   -10.34197   -10.34068   -10.34005
   -10.33942   -10.33651   -10.33547   -10.33530   -10.33406   -10.32648
   -10.32522   -10.31851    -1.05374    -1.01518    -0.99471    -0.95547
    -0.95153    -0.91744    -0.89625    -0.88870    -0.86264    -0.84987
    -0.80400    -0.78527    -0.75845    -0.75265    -0.72293    -0.71755
    -0.68881    -0.67243    -0.64818    -0.63973    -0.61817    -0.61553
    -0.60725    -0.58971    -0.58169    -0.57552    -0.56639    -0.56205
    -0.55810    -0.55515    -0.54501    -0.52241    -0.51853    -0.50643
    -0.49798    -0.49201    -0.49052    -0.47639    -0.46753    -0.44804
    -0.44489    -0.41204    -0.39291    -0.38479    -0.35749    -0.29819
    -0.22064    -0.15740    -0.15030    -0.13581    -0.10513    -0.07487
    -0.06715    -0.03968    -0.02336
 
  
  
    Unrestricted Spin Properties ...
    Sz*(Sz+1)      0.750
    <S**2> ...     0.766
  
  
  Peak memory usage:   6747 Mb
  
  end of program scf
   
 Time(scf)  user:       70.4  user+sys:       70.4  wallclock:        5.2
  
  start of program der1a
  
  Peak memory usage:   4838 Mb
  
  end of program der1a
   
 Time(der1a)  user:        1.8  user+sys:        1.8  wallclock:        0.5
  
  start of program rwr
  
  Peak memory usage:   4745 Mb
  
  end of program rwr
   
 Time(rwr)  user:       31.7  user+sys:       31.7  wallclock:        3.7
  
  start of program der1b
  
   
  forces (hartrees/bohr) : total     
   
 atom  label           x              y              z
 ---- --------   -------------  -------------  -------------
    1 C1          1.503141E-06   5.129527E-05  -7.370598E-06
    2 C2         -5.394324E-05  -1.840710E-06   1.471691E-05
    3 C3         -5.826563E-05   5.265487E-05  -6.198748E-05
    4 C4         -5.882401E-05   1.075547E-05  -7.150923E-05
    5 C5         -3.306840E-05   2.656733E-05   1.200949E-05
    6 C6         -2.589523E-05   4.217950E-05  -8.345716E-06
    7 C7         -3.916776E-05   2.522959E-05   1.882336E-05
    8 C8          2.384662E-05   5.481482E-05  -6.076560E-05
    9 C9         -1.038815E-04  -2.843659E-05  -1.849064E-04
   10 C10        -4.142787E-05  -6.696382E-05  -1.105232E-06
   11 C11        -5.823014E-06   6.018704E-05  -9.262953E-05
   12 C12        -3.259144E-05   5.813655E-05   1.782281E-04
   13 C13        -6.351076E-05   3.118730E-05   2.219185E-04
   14 C14        -1.736646E-05   3.055088E-05  -2.130423E-05
   15 C15        -1.481889E-05   3.209857E-05  -9.362563E-06
   16 C16        -4.249569E-05   3.504389E-05  -9.359720E-05
   17 C17        -2.772584E-05   2.553803E-05  -2.024092E-06
   18 C18        -5.086616E-05   2.583152E-05   2.004076E-06
   19 C19        -3.757747E-05   7.769317E-06   6.112699E-06
   20 C20        -1.501355E-06   3.943360E-05   1.431381E-05
   21 H21        -2.299413E-05   3.381174E-05   6.782914E-06
   22 H22        -3.275874E-05   1.999751E-05   5.401256E-06
   23 H23        -4.554660E-05   1.875893E-05   4.398604E-05
   24 H24        -3.557124E-05   3.506019E-05   7.374665E-06
   25 H25        -3.541626E-05   2.838090E-05  -1.575321E-05
   26 H26        -1.979993E-05   1.731656E-05   1.431050E-04
   27 H27        -8.627326E-05  -1.082945E-05  -5.154284E-05
   28 H28        -3.938511E-05   2.831011E-05   4.746925E-05
   29 H29        -4.125270E-05   1.139429E-05   2.879555E-06
   30 H30        -3.913913E-05   1.571754E-05  -2.249957E-06
   31 H31        -3.304557E-05   1.239927E-05  -6.183591E-06
   32 H32        -2.347154E-05   1.363376E-05  -2.385093E-05
 -------------   -------------  -------------  -------------
     total       -1.138055E-03   7.359838E-04   1.063720E-05
   
  Peak memory usage:   6741 Mb
  
  end of program der1b
   
 Time(der1b)  user:       36.5  user+sys:       36.5  wallclock:        2.7
  
  start of program geopt
  
 ----------------------------------------------------------------------------
  Geometry optimization step 31
  Total energy:      -768.96370629547 hartrees
 ----------------------------------------------------------------------------
  
  energy change:          -1.0487E-05 *  (  5.0000E-05 )
  gradient maximum:        1.6930E-04 *  (  4.5000E-04 )
  gradient rms:            4.3716E-05 #  (  3.0000E-04 )
  displacement maximum:    2.9129E-03 .  (  1.8000E-03 )
  displacement rms:        6.7294E-04 *  (  1.2000E-03 )
  
  predicted energy change:  -1.2894E-06
  step size:     0.00764
  trust radius:  0.30000
  
  ********************************************************
  **           Geometry optimization complete           **
  ********************************************************
  
  Checking the geometry optimization convergence pattern ...
  
  best                    worst
  ==0=====1=====2=====3=====4==
          ^                    
  
  Convergence category 1: non-monotonic convergence to an optimal structure.
  Geometry optimization was OK.
  
  Number of imaginary frequencies:   0
  
  center of mass moved by:
     x:     0.0000E+00     y:     0.0000E+00     z:     0.0000E+00
  
  final geometry: 
                                   angstroms
  atom               x                 y                 z
  C1            3.9764962209     -1.4912649294      0.0218001862 
  C2            2.8478343547     -2.3305858919     -0.0079106779 
  C3            1.5617770831     -1.7910034702     -0.0184617188 
  C4            1.3509803711     -0.3918427025     -0.0000269317 
  C5            2.5198284221      0.4766645822      0.0297383537 
  C6            3.8127693202     -0.1096714960      0.0402105476 
  C7            2.3960087673      1.8923692360      0.0484959585 
  C8            1.1296499988      2.5190456644      0.0382774038 
  C9            0.8749399973      3.9224636442      0.0572017660 
  C10          -0.4383358561      4.3842791554      0.0465362048 
  C11          -1.5517421181      3.4987414467      0.0163331833 
  C12          -1.3226070580      2.1282137803     -0.0034821579 
  C13           0.0103827664      1.6632817151      0.0078605756 
  C14           0.0667524536      0.2329480211     -0.0099164901 
  C15          -1.3217262863     -0.2348457150     -0.0340376383 
  C16          -2.1801531828      0.9209418714     -0.0306591822 
  C17          -3.5559441347      0.7830478800     -0.0502573136 
  C18          -4.1125812086     -0.5187670982     -0.0735435674 
  C19          -3.2909489709     -1.6483968347     -0.0764488377 
  C20          -1.8924016186     -1.5168031203     -0.0565845224 
  H21           4.9712667632     -1.9211204096      0.0297911061 
  H22           2.9776199620     -3.4067010473     -0.0230741191 
  H23           0.7156412555     -2.4628720661     -0.0429349079 
  H24           4.6820978875      0.5393221587      0.0625539472 
  H25           3.3006319572      2.4929897048      0.0717475093 
  H26           1.7011727608      4.6244795512      0.0777783040 
  H27          -0.6239740024      5.4521187238      0.0621839448 
  H28          -2.5556397232      3.9083823796      0.0089400423 
  H29          -4.2087904168      1.6487393060     -0.0480298253 
  H30          -5.1902331179     -0.6364398344     -0.0889570450 
  H31          -3.7335033257     -2.6373453204     -0.0937984910 
  H32          -1.2855769335     -2.4126924978     -0.0583181901 
   
  principal moments of inertia:
        amu*angstrom^2:      976.85061     1504.55434     2481.40253
                g*cm^2: 1.62209840E-37 2.49837094E-37 4.12046533E-37
   
  rotational constants:
               cm^(-1):      0.01725712      0.01120440      0.00679359
                   GHz:      0.51735547      0.33589947      0.20366668
   
  nuclear repulsion energy.......    1346.034362045 hartrees
  -------------------------------------------------
 /  end of geometry optimization iteration  31   /
 -------------------------------------------------
   
  Peak memory usage:   4821 Mb
  
  end of program geopt
   
 Time(geopt)  user:       11.2  user+sys:       11.2  wallclock:        1.0
  
  start of program ch
  
  Moments from quantum mechanical wavefunction:
  Dipole Moments  (Debye)
     X=     1.7696     Y=    -0.1011     Z=     0.0288  Tot=     1.7727
  
  gridpoints used for charge fit        17564
    out of a possible maximum of        18499
  
   Electrostatic potential fitting constrained to reproduce
     total charge:                yes
     dipole moment:               yes
     traceless quadrupole moment: no 
     traceless octapole moment:   no 
  
  Atomic charges from electrostatic potential: 
   
 Atom       C1           C2           C3           C4           C5      
 Charge   -0.07798     -0.05629     -0.14986      0.17395      0.10475
   
 Atom       C6           C7           C8           C9           C10     
 Charge   -0.12001     -0.18841      0.12890     -0.16231     -0.09221
   
 Atom       C11          C12          C13          C14          C15     
 Charge   -0.06991     -0.02983      0.12069     -0.17149      0.15729
   
 Atom       C16          C17          C18          C19          C20     
 Charge    0.03643     -0.13335     -0.05310     -0.10624     -0.16938
   
 Atom       H21          H22          H23          H24          H25     
 Charge    0.15305      0.15044      0.14440      0.15275      0.18053
   
 Atom       H26          H27          H28          H29          H30     
 Charge    0.16461      0.15525      0.15012      0.15406      0.14342
   
 Atom       H31          H32     
 Charge    0.14745      0.16232
  
  sum of atomic charges:     1.000000
   
 RMS Error   7.44E-04 hartrees
 
  
  Moments from electrostatic potential charges:
  Dipole Moments  (Debye)
     X=     1.7696     Y=    -0.1011     Z=     0.0288  Tot=     1.7727
  
  Peak memory usage:   4833 Mb
  
  end of program ch
   
 Time(ch)  user:        5.2  user+sys:        5.2  wallclock:        2.5

 Total cpu seconds     user:    8223.991   user+sys:    8223.991
  
 Total elapsed time:    791 seconds

Job Fluoroanthene_1 completed on n049 at Sun Jan  8 22:37:59 2017
