Job Hexestrol_2 started on n077 at Sun Jan  8 22:25:00 2017
jobid: u01-0-5873027b

  +--------------------------------------------------------------------+
  |  Jaguar version 9.3, release  15                                   |
  |                                                                    |
  |  Copyright Schrodinger, Inc.                                       |
  |  All Rights Reserved.                                              |
  |                                                                    |
  |  The following have contributed to Jaguar (listed alphabetically): |
  |  Mike Beachy, Art Bochevarov, Dale Braden, Yixiang Cao,            |
  |  Chris Cortis, Rich Friesner, Bill Goddard, Hod Greeley,           |
  |  Tom Hughes, Leif Jacobson, Jean-Marc Langlois,                    |
  |  Daniel Mainz, Rob Murphy, Dean Philipp,                           |
  |  Tom Pollard, Murco Ringnalda, Mark Watson.                        |
  |                                                                    |
  |  Use of this program should be acknowledged in publications as:    |
  |                                                                    |
  |  Jaguar, version 9.3, Schrodinger, Inc., New York, NY, 2016.       |
  |                                                                    |
  |  A. D. Bochevarov, E. Harder, T. F. Hughes, J. R. Greenwood,       |
  |  D. A. Braden, D. M. Philipp, D. Rinaldo, M. D. Halls,             |
  |  J. Zhang, R. A. Friesner, "Jaguar: A High-Performance Quantum     |
  |  Chemistry Software Program with Strengths in Life and Materials   |
  |  Sciences", Int. J. Quantum Chem., 2013, 113(18), 2110-2142.       |
  +--------------------------------------------------------------------+
  
  start of program pre
  
  Job name: Hexestrol_2
  Executables used: /home/applications/Schrodinger_Suites_2016-3/jaguar-v9.3/bin/Linux-x86_64
  Temporary files : /scratch/Schrodinger_Suites/pbeni001/Hexestrol_2#u01-0-5873027b
  Maestro file (input):  Hexestrol_2.mae
  Maestro file (output): Hexestrol_2.01.mae
  
  basis set:             6-31g                           
  net molecular charge:    1
  multiplicity:            2
  
  Using up to  16 threads per process
  
  number of basis functions....          224
  
 Input geometry:
                                   angstroms
  atom               x                 y                 z
  C1            0.9731767000     -1.0037878000      2.9675893000 
  C2            2.3735537000     -0.5764403000      2.5641670000 
  C3            2.8948765000     -1.1396508000      1.2226892000 
  H4            2.5372813000     -0.4628836000      0.4331737000 
  C5            2.2789689000     -2.4974574000      0.8607472000 
  C6            2.4634701000     -3.5994040000      1.6972102000 
  C7            2.3593109000     -4.8935894000      1.1996177000 
  C8            1.6911963000     -5.0958930000      0.0174607000 
  C9            1.1344155000     -4.0129565000     -0.6521381000 
  C10           1.5006818000     -2.7096235000     -0.2789863000 
  O11           1.5584400000     -6.3468148000     -0.5013458000 
  C12           4.5152376000     -1.0444150000      1.1817683000 
  H13           4.8368888000     -1.3559377000      0.1766249000 
  C14           5.0001028000      0.4217507000      1.3725100000 
  C15           4.5043385000      1.3972762000      0.3188944000 
  C16           5.2492346000     -1.9788003000      2.1754067000 
  C17           5.9104786000     -1.5733163000      3.3391218000 
  C18           6.3813792000     -2.5108356000      4.2756512000 
  C19           6.0125553000     -3.8449898000      4.1318784000 
  C20           5.3552560000     -4.2522647000      3.0072415000 
  C21           5.1823164000     -3.3587512000      1.9487270000 
  O22           6.3117485000     -4.7922006000      5.0624682000 
  H23           0.7269620000     -0.5692553000      3.9390381000 
  H24           0.8953484000     -2.0866903000      3.0909321000 
  H25           0.2333877000     -0.6826804000      2.2306472000 
  H26           3.0541718000     -0.8552443000      3.3743835000 
  H27           2.3935245000      0.5197341000      2.5115964000 
  H28           2.8537581000     -3.4470510000      2.6983744000 
  H29           2.8439922000     -5.7035240000      1.7376185000 
  H30           0.4603574000     -4.1857022000     -1.4817307000 
  H31           1.1581911000     -1.8735055000     -0.8848074000 
  H32           2.1305000000     -6.9444440000      0.0121766000 
  H33           6.0978079000      0.4487009000      1.3606368000 
  H34           4.6973610000      0.8001386000      2.3566484000 
  H35           4.8375462000      1.0941140000     -0.6770128000 
  H36           4.9016281000      2.3962526000      0.5266207000 
  H37           3.4151377000      1.4811469000      0.3175912000 
  H38           6.0744831000     -0.5205737000      3.5631088000 
  H39           6.9677101000     -2.1824884000      5.1200009000 
  H40           4.9336849000     -5.2570075000      2.9531567000 
  H41           4.7952585000     -3.7253641000      1.0061036000 
  H42           7.0623920000     -4.4754710000      5.5829423000 
   
  principal moments of inertia:
        amu*angstrom^2:     1348.63059     1780.34853     2616.79426
                g*cm^2: 2.23945351E-37 2.95633792E-37 4.34528855E-37
   
  rotational constants:
               cm^(-1):      0.01249981      0.00946872      0.00644209
                   GHz:      0.37473494      0.28386521      0.19312906
   
  Molecular weight:     270.16 amu
   
  Stoichiometry: C18H22O2
  Molecular Point Group: C1      
  Point Group used: C1
  
 
Number of optimization coordinates:   137
Number of independent coordinates:    137
Number of non-redundant coordinates:  120
Number of frozen coordinates:           0
Number of harmonic constraints:         0
 
Number of geometric degrees of freedom:   120
Maximum geometric degrees of freedom:     120
 " " " " " excluding dummy atoms:         120
 
  nuclear repulsion energy.......    1560.070781650 hartrees
 
 Non-default options chosen:
   SCF calculation type: UDFT(b3lyp)                 
   UDFT=Becke_3_Parameter/HF+Slater+Becke88+VWN+LYP (B3LYP)
   Geometry will be optimized in redundant internal coordinates
   Electrostatic potential fit to point charges on atomic centers
   Electrostatic potential fitting constrained to reproduce
     total charge:                yes
     dipole moment:               yes
     traceless quadrupole moment: no 
     traceless octapole moment:   no 
  
 Temporary integer options set:
     73=  2
  
  Peak memory usage:   3789 Mb
  
  end of program pre
   
 Time(pre)  user:        7.9  user+sys:        7.9  wallclock:        3.0
  
  start of program onee
  
  smallest eigenvalue of S:    6.688E-04
  number of canonical orbitals.....          224
  Peak memory usage:   3812 Mb
  
  end of program onee
   
 Time(onee)  user:        6.2  user+sys:        6.2  wallclock:        1.1
  
  start of program hfig
  
  initial wavefunction generated automatically from atomic wavefunctions
  
  -------------------
  Alpha orbital space
  -------------------
 
  Irreducible     Total no   No of occupied orbitals 
  representation  orbitals   Shell_1  Shell_2    ...
  No Symm          224         73
  ------------------------
  Orbital occupation/shell    1.000
 
  ------------------
  Beta orbital space
  ------------------
 
  Irreducible     Total no   No of occupied orbitals 
  representation  orbitals   Shell_1  Shell_2    ...
  No Symm          224         72
  ------------------------
  Orbital occupation/shell    1.000
 
  
  
    Unrestricted Spin Properties ...
    Sz*(Sz+1) ..............     0.750
    <S**2> of initial guess      0.750
  
  
  Peak memory usage:   3740 Mb
  
  end of program hfig
   
 Time(hfig)  user:        4.4  user+sys:        4.4  wallclock:        1.4
  
  start of program probe
  
  Peak memory usage:   3726 Mb
  
  end of program probe
   
 Time(probe)  user:        2.5  user+sys:        2.5  wallclock:        0.8
  
  start of program grid
  
   grid     grid set  grid #  grid sym
  ------    --------  ------  --------
  coarse        0        0        1
  medium        2        1        1
  fine          0        0        1
  ultrafine     4        2        1
  charge       -1        3        1
  gradient      4        2        1
  density       0        0        1
  DFT-fine    -11        4        1
  DFT-med.    -10        5        1
  DFT-grad    -12        6        1
  DFT-der2      0        0        1
  DFT-cphf      0        0        1
  LMP2-enrg     4        2        1
  LMP2-grad     2        1        1
  DFT-cphf2     0        0        1
  PBF-dens      0        0        1
  plotting      0        0        1
  Rel-grad    -17        0        1
  
  number of gridpoints: 
     atom        C1       C2       C3       H4       C5       C6       C7
  grid # 1       77       86       92      101      100       95       95
  grid # 2      266      286      323      410      357      324      331
  grid # 3        6        6        6      270       25       39      126
  grid # 4     4304     4304     4304     4304     4304     4304     4304
  grid # 5     1192     1192     1192     1192     1192     1192     1192
  grid # 6     5226     5226     5226     5226     5226     5226     5226
   
  number of gridpoints: 
     atom        C8       C9      C10      O11      C12      H13      C14
  grid # 1       96       97       95      114       91      108       86
  grid # 2      352      332      334      427      323      426      288
  grid # 3      197      209      146      852        6      624        6
  grid # 4     4304     4304     4304     4304     4304     4304     4304
  grid # 5     1192     1192     1192     1192     1192     1192     1192
  grid # 6     5226     5226     5226     5226     5226     5226     5226
   
  number of gridpoints: 
     atom       C15      C16      C17      C18      C19      C20      C21
  grid # 1       79      100       94       97       96       96       96
  grid # 2      264      358      334      334      347      333      327
  grid # 3        6       79      126      205      183      137      146
  grid # 4     4304     4304     4304     4304     4304     4304     4304
  grid # 5     1192     1192     1192     1192     1192     1192     1192
  grid # 6     5226     5226     5226     5226     5226     5226     5226
   
  number of gridpoints: 
     atom       O22      H23      H24      H25      H26      H27      H28
  grid # 1      114      110      105      109      105      106      107
  grid # 2      427      439      424      440      418      420      418
  grid # 3      824     1123      671      958      423      543      368
  grid # 4     4304     4304     4304     4304     4304     4304     4304
  grid # 5     1192     1192     1192     1192     1192     1192     1192
  grid # 6     5226     5226     5226     5226     5226     5226     5226
   
  number of gridpoints: 
     atom       H29      H30      H31      H32      H33      H34      H35
  grid # 1      112      118      115      112      108      106      110
  grid # 2      426      453      442      443      430      411      440
  grid # 3      657     1318     1005     1231      760      417      983
  grid # 4     4304     4304     4304     4304     4304     4304     4304
  grid # 5     1192     1192     1192     1192     1192     1192     1192
  grid # 6     5226     5226     5226     5226     5226     5226     5226
   
  number of gridpoints: 
     atom       H36      H37      H38      H39      H40      H41      H42
  grid # 1      108      105      111      117      113      111      114
  grid # 2      439      420      427      442      433      427      443
  grid # 3     1136      648      713     1149      794      636     1275
  grid # 4     4304     4304     4304     4304     4304     4304     4304
  grid # 5     1192     1192     1192     1192     1192     1192     1192
  grid # 6     5226     5226     5226     5226     5226     5226     5226
   
  number of gridpoints: 
     atom     total
  grid # 1     4307
  grid # 2    16138
  grid # 3    21032
  grid # 4   180768
  grid # 5    50064
  grid # 6   219492
   
  Peak memory usage:   3770 Mb
  
  end of program grid
   
 Time(grid)  user:       34.9  user+sys:       34.9  wallclock:        3.6
  
  start of program rwr
  
  Peak memory usage:   3735 Mb
  
  end of program rwr
   
 Time(rwr)  user:       53.1  user+sys:       53.1  wallclock:        5.5
  
  start of program scf
  
 number of electrons..........        145
 number of alpha electrons....         73
 number of beta electrons.....         72
 number of alpha orbitals.....        224
 number of beta orbitals......        224
 number of alpha occupied orb..        73
 number of alpha virtual orb...       151
 number of beta occupied orb...        72
 number of beta virtual orb....       152
 SCF type: UDFT=Becke_3_Parameter/HF+Slater+Becke88+VWN+LYP (B3LYP)
 Energy computed with NOPS off.
  
       i  u  d  i  g                   
       t  p  i  c  r                                 RMS    maximum
       e  d  i  u  i                       energy  density   DIIS  
       r  t  s  t  d       total energy    change  change    error 
  
etot    1  N  N  5  M    -846.44580542400           9.0E-03  1.4E-01
etot    2  Y  Y  6  M    -848.18145621494  1.7E+00  8.7E-03  1.5E-01
etot    3  Y  Y  6  M    -847.93908325356 -2.4E-01  6.4E-03  2.1E-01
etot    4  N  Y  2  U    -848.95247949414  1.0E+00  4.9E-03  2.8E-02
etot    5  Y  Y  6  M    -848.91974505339 -3.3E-02  3.7E-03  2.6E-02
etot    6  N  Y  2  U    -849.03461299801  1.1E-01  3.3E-03  1.2E-02
etot    7  Y  Y  6  M    -849.01182191094 -2.3E-02  2.9E-03  1.7E-02
etot    8  N  Y  2  U    -849.05801211575  4.6E-02  1.3E-03  2.0E-02
etot    9  Y  Y  6  M    -849.06962559571  1.2E-02  1.4E-04  9.0E-03
etot   10  N  Y  2  U    -849.07019402694  5.7E-04  7.9E-05  6.5E-03
etot   11  Y  Y  6  M    -849.07043265672  2.4E-04  7.9E-05  6.1E-03
etot   12  Y  Y  6  M    -849.07069457634  2.6E-04  8.3E-05  4.2E-03
etot   13  Y  Y  6  M    -849.07092411435  2.3E-04  2.0E-05  1.9E-03
etot   14  N  Y  2  U    -849.07094280651  1.9E-05  1.9E-05  1.3E-03
etot   15  N  Y  2  U    -849.07095980907  1.7E-05  1.2E-05  7.4E-04
etot   16  N  Y  2  U    -849.07096586981  6.1E-06  5.5E-06  4.0E-04
etot   17  N  Y  2  U    -849.07096653740  6.7E-07  4.1E-06  4.0E-04
etot   18  N  N  2  U    -849.07096789816  1.4E-06  0.0E+00  0.0E+00
  
  
 Energy components, in hartrees:
   (A)  Nuclear repulsion............    1560.07078165017
   (E)  Total one-electron terms.....   -4229.11977686612
   (I)  Total two-electron terms.....    1819.97802731778
   (L)  Electronic energy............   -2409.14174954834  (E+I)
   (N)  Total energy.................    -849.07096789816  (A+L)
   (O)  Gas phase energy.............    -849.07096789816
  
                                 Total             Coulomb       Exchange+Corr.
 Total two-electron terms    1819.97802731778    1942.89472918949    -122.91670187171
   Hamiltonian  1........     934.07580662867     977.87410105420     -43.79829442553
   Hamiltonian  2........     921.64922047480     965.02062813529     -43.37140766049
  
 SCFE: SCF energy: UDFT(b3lyp)      -849.07096789816 hartrees   iterations:  18
  
 
 Alpha HOMO energy:    -0.36958
 Alpha LUMO energy:    -0.17039
 
  Alpha Orbital energies (hartrees): 
   -19.34136   -19.32758   -10.41465   -10.40299   -10.35435   -10.34399
   -10.34338   -10.34277   -10.33944   -10.33881   -10.33718   -10.33649
   -10.33644   -10.33589   -10.33171   -10.33066   -10.29905   -10.29475
   -10.27420   -10.27089    -1.24002    -1.22843    -1.02856    -1.01504
    -0.95814    -0.92061    -0.91059    -0.89819    -0.89090    -0.87802
    -0.82897    -0.79184    -0.78402    -0.77403    -0.75510    -0.74070
    -0.71515    -0.70586    -0.69686    -0.68280    -0.64901    -0.62965
    -0.61680    -0.60544    -0.59521    -0.59245    -0.59012    -0.57967
    -0.57270    -0.57030    -0.56867    -0.56192    -0.55199    -0.53692
    -0.53010    -0.52844    -0.52159    -0.50539    -0.50221    -0.49327
    -0.48459    -0.48120    -0.47546    -0.46265    -0.45954    -0.45501
    -0.44518    -0.43913    -0.43476    -0.40900    -0.39042    -0.37656
    -0.36958    -0.17039    -0.14838    -0.14815    -0.13710    -0.07453
    -0.06074    -0.05009    -0.03404    -0.02104    -0.01600
 
 
 Beta HOMO energy:    -0.34992
 Beta LUMO energy:    -0.32551
 
  Beta Orbital energies (hartrees): 
   -19.33780   -19.32472   -10.41272   -10.40147   -10.35177   -10.34345
   -10.34240   -10.34194   -10.33969   -10.33772   -10.33593   -10.33580
   -10.33568   -10.33545   -10.33207   -10.33079   -10.29863   -10.29468
   -10.27417   -10.27088    -1.23258    -1.22239    -1.02403    -1.01136
    -0.95483    -0.91570    -0.90883    -0.89651    -0.88680    -0.87596
    -0.82730    -0.79022    -0.78158    -0.77185    -0.75247    -0.73874
    -0.71393    -0.70400    -0.69541    -0.68151    -0.64724    -0.62790
    -0.61498    -0.60365    -0.59353    -0.58995    -0.58636    -0.57395
    -0.57045    -0.56741    -0.56215    -0.55341    -0.54735    -0.53491
    -0.52751    -0.52572    -0.51953    -0.50248    -0.49988    -0.49102
    -0.48186    -0.47211    -0.47015    -0.45898    -0.45656    -0.45386
    -0.44067    -0.43786    -0.43206    -0.40525    -0.38198    -0.34992
    -0.32551    -0.16246    -0.14223    -0.13535    -0.12510    -0.07307
    -0.05944    -0.04875    -0.03331    -0.01996
 
  
  
    Unrestricted Spin Properties ...
    Sz*(Sz+1)      0.750
    <S**2> ...     0.755
  
  
  Peak memory usage:   5788 Mb
  
  end of program scf
   
 Time(scf)  user:      354.5  user+sys:      354.5  wallclock:       26.0
  
  start of program der1a
  
  Peak memory usage:   3824 Mb
  
  end of program der1a
   
 Time(der1a)  user:        4.7  user+sys:        4.7  wallclock:        0.9
  
  start of program rwr
  
  Peak memory usage:   3736 Mb
  
  end of program rwr
   
 Time(rwr)  user:       44.7  user+sys:       44.7  wallclock:        5.5
  
  start of program der1b
  
   
  forces (hartrees/bohr) : total     
   
 atom  label           x              y              z
 ---- --------   -------------  -------------  -------------
    1 C1         -6.424066E-03  -1.663673E-03   2.891982E-03
    2 C2          4.083458E-03   3.550618E-03   1.118645E-02
    3 C3         -1.105185E-02  -5.585028E-03  -1.068494E-02
    4 H4          5.311642E-03  -6.572399E-04  -1.437787E-04
    5 C5          7.404732E-03   2.791820E-02   1.178874E-02
    6 C6          1.653662E-02  -2.132620E-02   1.566920E-02
    7 C7          1.209282E-02   1.146095E-02   3.614264E-02
    8 C8         -5.523498E-03  -1.501730E-02  -1.318047E-02
    9 C9         -9.628762E-03   2.988483E-02  -1.700773E-02
   10 C10        -1.315105E-02  -1.254514E-02  -2.208242E-02
   11 O11        -4.212203E-04   5.624819E-03  -2.975563E-03
   12 C12         2.168843E-02  -3.236394E-03   7.749763E-03
   13 H13        -4.747263E-03  -1.764762E-03  -7.805963E-04
   14 C14        -3.700661E-03   1.439191E-03   4.060317E-03
   15 C15        -1.467208E-03   4.550749E-03  -3.404133E-03
   16 C16        -1.234909E-02   6.462397E-03  -2.413813E-02
   17 C17         1.189012E-02   6.185495E-03   2.622764E-02
   18 C18        -3.341974E-03   2.209909E-02  -8.114498E-03
   19 C19         1.444689E-02   7.332878E-03   2.277542E-02
   20 C20        -1.916750E-02  -1.770702E-02  -4.532983E-02
   21 C21        -1.122243E-02  -1.304437E-02   3.802340E-03
   22 O22        -1.040193E-04  -3.869503E-03  -3.496728E-03
   23 H23        -3.115947E-03   3.338872E-03  -2.083600E-04
   24 H24        -2.115357E-03  -9.790962E-04  -1.189764E-03
   25 H25        -3.695058E-03  -6.324917E-05   7.143008E-04
   26 H26         3.730352E-03  -7.831822E-04   1.072082E-03
   27 H27         2.452465E-03  -1.043106E-03  -6.645774E-04
   28 H28        -5.297228E-04  -1.899227E-03  -4.650289E-03
   29 H29        -8.134448E-03  -3.009526E-03   2.583085E-03
   30 H30         2.693418E-03  -4.417756E-04  -2.451323E-03
   31 H31         2.389541E-03  -1.510996E-03   7.318782E-04
   32 H32        -1.656873E-03  -1.445423E-02  -1.180365E-03
   33 H33        -6.651935E-04  -4.733801E-03   2.867822E-04
   34 H34         5.492611E-04  -2.182094E-03   1.248597E-03
   35 H35        -8.924180E-04   1.321840E-03  -2.911820E-03
   36 H36         2.127670E-04   1.417628E-04  -2.115259E-03
   37 H37        -1.952289E-03   1.153692E-03  -1.850198E-03
   38 H38        -4.950290E-04  -3.394175E-03  -3.089265E-03
   39 H39         4.454954E-04   1.803707E-03   4.258353E-03
   40 H40         1.185013E-02   2.773287E-04  -1.706630E-03
   41 H41         1.224860E-03   6.180262E-04   2.197480E-03
   42 H42         6.909580E-03  -3.182770E-03   1.763737E-02
 -------------   -------------  -------------  -------------
     total        3.596384E-04   1.070598E-03  -3.322422E-04
   
  Peak memory usage:   5738 Mb
  
  end of program der1b
   
 Time(der1b)  user:       55.7  user+sys:       55.7  wallclock:        4.7
  
  start of program geopt
  
 ----------------------------------------------------------------------------
  Geometry optimization step  1
  Total energy:      -849.07096789816 hartrees
 ----------------------------------------------------------------------------
  
  
  Level shifts adjusted to satisfy step-size constraints
   Step size:    0.3000678
   Cos(theta):   0.9275609
   Final level shift:  -2.8034236E-01
  
  gradient maximum:        5.6810E-02 .  (  4.5000E-04 )
  gradient rms:            1.3553E-02 .  (  3.0000E-04 )
  displacement maximum:    1.1762E-01 .  (  1.8000E-03 )
  displacement rms:        2.3173E-02 .  (  1.2000E-03 )
  
  predicted energy change:  -3.2171E-02
  step size:     0.27123
  trust radius:  0.30000
  
  molecular structure not yet converged...
  
  center of mass moved by:
     x:     2.9362E-02     y:    -5.7513E-03     z:     9.1126E-03
  
  new geometry: 
                                   angstroms
  atom               x                 y                 z
  C1            0.8415299436     -0.8879502052      2.8751889901 
  C2            2.3030401698     -0.5610392373      2.5533662563 
  C3            2.8904364400     -1.1886255394      1.2528560790 
  H4            2.6239150949     -0.5181591454      0.4251253368 
  C5            2.2485880602     -2.5304007698      0.8890640046 
  C6            2.3092367863     -3.6527252327      1.7515731577 
  C7            2.1330504124     -4.9396723264      1.2563648808 
  C8            1.5313773604     -5.0984100791      0.0025187316 
  C9            1.1085860024     -3.9694325945     -0.7269223340 
  C10           1.5343676842     -2.7017002544     -0.3204903658 
  O11           1.3004206814     -6.3304178233     -0.5440017555 
  C12           4.5134307927     -1.0605789848      1.2700258822 
  H13           4.8527145189     -1.4043199232      0.2814650423 
  C14           4.9402430413      0.4266884231      1.4189955015 
  C15           4.4526329119      1.3451971981      0.2956650363 
  C16           5.2813136469     -1.9635260234      2.2496121720 
  C17           5.8693070216     -1.5540299221      3.4704108535 
  C18           6.4318407542     -2.4827543200      4.3595941725 
  C19           6.2659883764     -3.8558541025      4.1060982477 
  C20           5.6843664226     -4.2558278111      2.9007987850 
  C21           5.3962698701     -3.3214719744      1.9183997296 
  O22           6.6466152534     -4.8326209983      4.9914446007 
  H23           0.5559960401     -0.4072191193      3.8152100075 
  H24           0.6783514496     -1.9595070706      3.0195133787 
  H25           0.1654892619     -0.5452132014      2.0862893175 
  H26           2.9234597878     -0.8490715024      3.4108026095 
  H27           2.4036232744      0.5279152126      2.4689631926 
  H28           2.6380328546     -3.5228438264      2.7739072495 
  H29           2.4910886644     -5.7879055709      1.8329995940 
  H30           0.5001989364     -4.1011857907     -1.6131413121 
  H31           1.2938978824     -1.8475651719     -0.9466949626 
  H32           1.7370520384     -7.0265906627     -0.0135725812 
  H33           6.0364479362      0.4731259384      1.4443860564 
  H34           4.5922779550      0.8256595334      2.3799686737 
  H35           4.8286240751      1.0139355375     -0.6775127345 
  H36           4.8137636483      2.3647766861      0.4648173262 
  H37           3.3611576544      1.3995330370      0.2448869501 
  H38           5.9204847290     -0.5047179690      3.7441697312 
  H39           6.9438687508     -2.1372422939      5.2482404696 
  H40           5.4470778125     -5.3050684103      2.7427183986 
  H41           5.1087412714     -3.6565908031      0.9316283085 
  H42           7.3066215785     -4.4886717227      5.6212390585 
   
  nuclear repulsion energy.......    1535.893400942 hartrees
  -------------------------------------------------
 /  end of geometry optimization iteration   1   /
 -------------------------------------------------
   
  Peak memory usage:   4726 Mb
  
  end of program geopt
   
 Time(geopt)  user:       11.0  user+sys:       11.0  wallclock:        0.9
  
  start of program onee
  
  smallest eigenvalue of S:    7.158E-04
  number of canonical orbitals.....          224
  Peak memory usage:   3812 Mb
  
  end of program onee
   
 Time(onee)  user:        3.6  user+sys:        3.6  wallclock:        0.6
  
  start of program probe
  
  Peak memory usage:   3726 Mb
  
  end of program probe
   
 Time(probe)  user:        3.2  user+sys:        3.2  wallclock:        0.8
  
  start of program grid
  
   grid     grid set  grid #  grid sym
  ------    --------  ------  --------
  coarse        0        0        1
  medium        2        1        1
  fine          0        0        1
  ultrafine     4        2        1
  charge       -1        3        1
  gradient      4        2        1
  density       0        0        1
  DFT-fine    -11        4        1
  DFT-med.    -10        5        1
  DFT-grad    -12        6        1
  DFT-der2      0        0        1
  DFT-cphf      0        0        1
  LMP2-enrg     4        2        1
  LMP2-grad     2        1        1
  DFT-cphf2     0        0        1
  PBF-dens      0        0        1
  plotting      0        0        1
  Rel-grad    -17        0        1
  
  number of gridpoints: 
     atom        C1       C2       C3       H4       C5       C6       C7
  grid # 1       78       86       92      101      100       95       96
  grid # 2      268      289      327      407      360      329      327
  grid # 3        6        6        6      226       31       41      139
  grid # 4     4304     4304     4304     4304     4304     4304     4304
  grid # 5     1192     1192     1192     1192     1192     1192     1192
  grid # 6     5226     5226     5226     5226     5226     5226     5226
   
  number of gridpoints: 
     atom        C8       C9      C10      O11      C12      H13      C14
  grid # 1       96       97       95      114       92      107       86
  grid # 2      356      335      336      429      324      424      292
  grid # 3      204      212      143      830        6      547        6
  grid # 4     4304     4304     4304     4304     4304     4304     4304
  grid # 5     1192     1192     1192     1192     1192     1192     1192
  grid # 6     5226     5226     5226     5226     5226     5226     5226
   
  number of gridpoints: 
     atom       C15      C16      C17      C18      C19      C20      C21
  grid # 1       79      100       96       97       98       96       96
  grid # 2      267      363      332      333      358      332      332
  grid # 3        6       70      124      214      201      142      139
  grid # 4     4304     4304     4304     4304     4304     4304     4304
  grid # 5     1192     1192     1192     1192     1192     1192     1192
  grid # 6     5226     5226     5226     5226     5226     5226     5226
   
  number of gridpoints: 
     atom       O22      H23      H24      H25      H26      H27      H28
  grid # 1      114      109      106      109      105      105      110
  grid # 2      427      439      424      439      418      417      429
  grid # 3      812     1134      697      969      460      497      494
  grid # 4     4304     4304     4304     4304     4304     4304     4304
  grid # 5     1192     1192     1192     1192     1192     1192     1192
  grid # 6     5226     5226     5226     5226     5226     5226     5226
   
  number of gridpoints: 
     atom       H29      H30      H31      H32      H33      H34      H35
  grid # 1      115      118      115      113      108      104      109
  grid # 2      434      451      441      449      431      414      439
  grid # 3      863     1314      975     1276      775      422      983
  grid # 4     4304     4304     4304     4304     4304     4304     4304
  grid # 5     1192     1192     1192     1192     1192     1192     1192
  grid # 6     5226     5226     5226     5226     5226     5226     5226
   
  number of gridpoints: 
     atom       H36      H37      H38      H39      H40      H41      H42
  grid # 1      109      105      110      117      116      112      114
  grid # 2      441      418      429      443      443      433      449
  grid # 3     1134      647      720     1166      978      756     1313
  grid # 4     4304     4304     4304     4304     4304     4304     4304
  grid # 5     1192     1192     1192     1192     1192     1192     1192
  grid # 6     5226     5226     5226     5226     5226     5226     5226
   
  number of gridpoints: 
     atom     total
  grid # 1     4320
  grid # 2    16228
  grid # 3    21684
  grid # 4   180768
  grid # 5    50064
  grid # 6   219492
   
  Peak memory usage:   3770 Mb
  
  end of program grid
   
 Time(grid)  user:       33.6  user+sys:       33.6  wallclock:        3.6
  
  start of program rwr
  
  Peak memory usage:   3733 Mb
  
  end of program rwr
   
 Time(rwr)  user:       56.3  user+sys:       56.3  wallclock:        5.6
  
  start of program scf
  
 Energy computed with NOPS off.
  
       i  u  d  i  g                   
       t  p  i  c  r                                 RMS    maximum
       e  d  i  u  i                       energy  density   DIIS  
       r  t  s  t  d       total energy    change  change    error 
  
etot    1  N  N  2  U    -849.01620043136           1.7E-03  2.6E-02
etot    2  Y  Y  6  M    -849.09323224305  7.7E-02  5.9E-04  5.2E-03
etot    3  N  Y  2  U    -849.08949663710 -3.7E-03  4.5E-04  1.2E-02
etot    4  Y  Y  6  M    -849.09477221409  5.3E-03  2.6E-04  4.7E-03
etot    5  N  Y  2  U    -849.09468987617 -8.2E-05  1.9E-04  5.2E-03
etot    6  Y  Y  6  M    -849.09500882895  3.2E-04  4.6E-05  1.5E-03
etot    7  N  Y  2  U    -849.09508320532  7.4E-05  1.4E-05  1.8E-04
etot    8  N  Y  2  U    -849.09508605387  2.8E-06  1.1E-05  1.9E-04
etot    9  N  Y  2  U    -849.09508797903  1.9E-06  8.0E-06  1.1E-04
etot   10  N  Y  2  U    -849.09508897566  1.0E-06  7.0E-06  5.1E-05
etot   11  N  Y  2  U    -849.09508936803  3.9E-07  3.6E-06  2.4E-05
etot   12  N  N  2  U    -849.09508943893  7.1E-08  0.0E+00  0.0E+00
  
  
 Energy components, in hartrees:
   (A)  Nuclear repulsion............    1535.89340094237
   (E)  Total one-electron terms.....   -4181.35426680729
   (I)  Total two-electron terms.....    1796.36577642599
   (L)  Electronic energy............   -2384.98849038130  (E+I)
   (N)  Total energy.................    -849.09508943893  (A+L)
   (O)  Gas phase energy.............    -849.09508943893
  
                                 Total             Coulomb       Exchange+Corr.
 Total two-electron terms    1796.36577642599    1919.16024596860    -122.79446954261
   Hamiltonian  1........     922.18102973057     965.93221437861     -43.75118464804
   Hamiltonian  2........     909.89890413395     953.22803158998     -43.32912745603
  
 SCFE: SCF energy: UDFT(b3lyp)      -849.09508943893 hartrees   iterations:  12
  
 
 Alpha HOMO energy:    -0.36529
 Alpha LUMO energy:    -0.16122
 
  Alpha Orbital energies (hartrees): 
   -19.33759   -19.32590   -10.41570   -10.40569   -10.35514   -10.34399
   -10.34387   -10.34228   -10.33706   -10.33588   -10.33522   -10.33501
   -10.33489   -10.33352   -10.33217   -10.32927   -10.29929   -10.29569
   -10.27349   -10.27267    -1.22992    -1.21770    -1.01671    -1.00791
    -0.95274    -0.91386    -0.90438    -0.89645    -0.88373    -0.87232
    -0.82536    -0.78979    -0.77651    -0.76770    -0.75190    -0.73979
    -0.71387    -0.69992    -0.69373    -0.68064    -0.64248    -0.62420
    -0.61427    -0.60042    -0.59126    -0.58500    -0.58180    -0.57213
    -0.57012    -0.56688    -0.56550    -0.55591    -0.54732    -0.53362
    -0.52625    -0.52350    -0.51749    -0.50157    -0.49830    -0.48897
    -0.48011    -0.47827    -0.47547    -0.46181    -0.45934    -0.45424
    -0.44499    -0.43671    -0.43278    -0.40476    -0.38996    -0.37257
    -0.36529    -0.16122    -0.15134    -0.14483    -0.13954    -0.07159
    -0.06152    -0.04401    -0.03003    -0.02406    -0.01399
 
 
 Beta HOMO energy:    -0.34539
 Beta LUMO energy:    -0.31895
 
  Beta Orbital energies (hartrees): 
   -19.33425   -19.32312   -10.41371   -10.40399   -10.35264   -10.34334
   -10.34230   -10.34194   -10.33717   -10.33510   -10.33469   -10.33446
   -10.33438   -10.33247   -10.33212   -10.32948   -10.29886   -10.29559
   -10.27347   -10.27265    -1.22284    -1.21174    -1.01242    -1.00422
    -0.94961    -0.90921    -0.90270    -0.89512    -0.87941    -0.86998
    -0.82350    -0.78807    -0.77406    -0.76556    -0.74942    -0.73794
    -0.71248    -0.69815    -0.69230    -0.67931    -0.64086    -0.62249
    -0.61239    -0.59872    -0.58926    -0.58293    -0.57916    -0.56975
    -0.56734    -0.56437    -0.55666    -0.54658    -0.54217    -0.53137
    -0.52387    -0.52090    -0.51540    -0.49924    -0.49648    -0.48590
    -0.47735    -0.47142    -0.46877    -0.45910    -0.45589    -0.45279
    -0.43993    -0.43568    -0.42900    -0.40141    -0.38552    -0.34539
    -0.31895    -0.15312    -0.14175    -0.13606    -0.12628    -0.07022
    -0.06030    -0.04277    -0.02911    -0.02253
 
  
  
    Unrestricted Spin Properties ...
    Sz*(Sz+1)      0.750
    <S**2> ...     0.754
  
  
  Peak memory usage:   5790 Mb
  
  end of program scf
   
 Time(scf)  user:      244.2  user+sys:      244.2  wallclock:       18.7
  
  start of program der1a
  
  Peak memory usage:   3825 Mb
  
  end of program der1a
   
 Time(der1a)  user:        4.4  user+sys:        4.4  wallclock:        0.8
  
  start of program rwr
  
  Peak memory usage:   3733 Mb
  
  end of program rwr
   
 Time(rwr)  user:       41.2  user+sys:       41.2  wallclock:        5.4
  
  start of program der1b
  
   
  forces (hartrees/bohr) : total     
   
 atom  label           x              y              z
 ---- --------   -------------  -------------  -------------
    1 C1         -1.751452E-03  -1.156139E-03   7.758188E-04
    2 C2          2.514911E-03   8.080997E-04   8.375806E-03
    3 C3         -1.221233E-02  -1.159251E-03  -4.123363E-03
    4 H4         -3.441936E-04  -1.941094E-03   3.848547E-04
    5 C5          4.951919E-03   1.386084E-02   7.800204E-03
    6 C6          1.782155E-02  -7.905191E-03   1.314667E-03
    7 C7          1.812035E-03   7.660302E-03   1.379421E-02
    8 C8         -5.666373E-03  -5.503824E-03  -8.496869E-03
    9 C9          1.726175E-03   1.354967E-02  -3.735972E-03
   10 C10        -4.366574E-03  -9.814555E-03  -9.478998E-03
   11 O11         3.577945E-03   6.395834E-03   2.330350E-03
   12 C12         1.924640E-02  -7.035862E-03   4.529341E-03
   13 H13        -4.762443E-03   1.282767E-03  -2.509686E-03
   14 C14        -3.519107E-03   1.864880E-03   6.039785E-04
   15 C15        -3.059119E-04   2.349537E-03  -9.094394E-04
   16 C16        -7.347341E-03   1.126248E-02  -1.079666E-02
   17 C17         5.169736E-03   1.845960E-04   1.260235E-02
   18 C18        -5.233199E-03   1.027795E-02  -6.736764E-03
   19 C19         2.187567E-03   5.310203E-03   9.202687E-03
   20 C20        -1.590108E-03  -1.581115E-02  -1.582059E-02
   21 C21        -1.329311E-02  -1.081899E-02   5.960568E-03
   22 O22         6.408667E-04   3.413487E-03  -8.873903E-03
   23 H23        -1.261818E-03   3.052037E-03  -8.487707E-04
   24 H24        -5.012615E-04  -8.528255E-04  -1.249330E-03
   25 H25        -1.489242E-03   5.471194E-04   1.370309E-04
   26 H26         1.172427E-03  -1.929778E-03   8.476563E-04
   27 H27         3.835442E-04  -7.609258E-04  -2.248795E-04
   28 H28         5.130584E-03  -5.230615E-04  -5.238329E-04
   29 H29        -7.488911E-03  -1.567467E-03   1.625433E-03
   30 H30         2.566581E-03  -1.285834E-03  -1.270138E-03
   31 H31         2.522489E-03   2.171562E-05   8.747538E-04
   32 H32        -3.483030E-03  -6.971142E-03  -1.433011E-03
   33 H33        -4.119665E-04  -2.519935E-03   2.166738E-04
   34 H34         1.138966E-03  -8.105662E-04   2.744123E-04
   35 H35        -4.053686E-04   3.761462E-06  -1.292703E-03
   36 H36         4.194464E-04  -3.500595E-05  -8.290337E-04
   37 H37        -7.613336E-04   9.215569E-04  -7.972042E-04
   38 H38        -1.785956E-03  -1.044192E-03  -1.943548E-03
   39 H39        -4.051380E-04   4.770450E-04   2.499643E-03
   40 H40         9.874221E-03   9.422059E-05  -1.051680E-03
   41 H41        -4.563455E-03  -1.537696E-03  -1.548350E-04
   42 H42         2.252282E-04  -2.260305E-03   8.809040E-03
 -------------   -------------  -------------  -------------
     total        1.329712E-04   9.331984E-05  -1.417310E-04
   
  Peak memory usage:   5738 Mb
  
  end of program der1b
   
 Time(der1b)  user:       54.8  user+sys:       54.8  wallclock:        4.5
  
  start of program geopt
  
 ----------------------------------------------------------------------------
  Geometry optimization step  2
  Total energy:      -849.09508943893 hartrees
 ----------------------------------------------------------------------------
  
  
  Level shifts adjusted to satisfy step-size constraints
   Step size:    0.3000255
   Cos(theta):   0.9066716
   Final level shift:  -1.3004036E-01
  
  energy change:          -2.4122E-02 .  (  5.0000E-05 )
  gradient maximum:        2.1629E-02 .  (  4.5000E-04 )
  gradient rms:            6.3261E-03 .  (  3.0000E-04 )
  displacement maximum:    8.7605E-02 .  (  1.8000E-03 )
  displacement rms:        2.5631E-02 .  (  1.2000E-03 )
  
  predicted energy change:  -1.5922E-02
  step size:     0.30000
  trust radius:  0.30000
  
  molecular structure not yet converged...
  
  center of mass moved by:
     x:     6.3128E-03     y:     1.2328E-03     z:     4.3708E-04
  
  new geometry: 
                                   angstroms
  atom               x                 y                 z
  C1            0.8265757739     -0.8595875812      2.9241895417 
  C2            2.2979287096     -0.5432266115      2.5968938675 
  C3            2.8832258012     -1.1734741632      1.2813336879 
  H4            2.6175841742     -0.5129045048      0.4481806818 
  C5            2.2933306067     -2.5173378273      0.9385017059 
  C6            2.3859807063     -3.6489758086      1.8072807213 
  C7            2.1836741970     -4.9323857899      1.3199877990 
  C8            1.5962430873     -5.0872964586      0.0348435519 
  C9            1.2027463473     -3.9520554842     -0.7214759832 
  C10           1.6048155394     -2.6952511032     -0.2978659898 
  O11           1.3139228588     -6.3052152083     -0.5225476650 
  C12           4.4944880717     -1.0555730843      1.2674517999 
  H13           4.7827461306     -1.4134893096      0.2672519848 
  C14           4.9350151174      0.4311412474      1.3815952220 
  C15           4.4377957148      1.3450544397      0.2455329772 
  C16           5.2140921228     -1.9762082464      2.2315574703 
  C17           5.7608353089     -1.5717146235      3.4829106220 
  C18           6.3214395165     -2.4956299907      4.3606601652 
  C19           6.2497727706     -3.8771311419      4.0552510388 
  C20           5.7143849159     -4.2866409219      2.8059426257 
  C21           5.3569849874     -3.3388897375      1.8657534670 
  O22           6.6251481902     -4.8683988167      4.9286728214 
  H23           0.5425523537     -0.3665254391      3.8599820186 
  H24           0.6525143384     -1.9303953333      3.0699115772 
  H25           0.1455331636     -0.5165629575      2.1375344318 
  H26           2.9338600978     -0.8293384707      3.4472192723 
  H27           2.4087882099      0.5431814584      2.5065871512 
  H28           2.7501390044     -3.5191546245      2.8183033663 
  H29           2.4918051721     -5.7939126876      1.9047666261 
  H30           0.6348022820     -4.0930074803     -1.6324284515 
  H31           1.3824583911     -1.8374010262     -0.9227761586 
  H32           1.6618109201     -7.0624848910     -0.0038127104 
  H33           6.0315843021      0.4465708268      1.3785967994 
  H34           4.6230127251      0.8442419382      2.3483315856 
  H35           4.7774740525      0.9881635808     -0.7337150147 
  H36           4.8333650988      2.3571667157      0.3780737193 
  H37           3.3464538696      1.4345472835      0.2163889474 
  H38           5.7816075911     -0.5246991972      3.7593022389 
  H39           6.7817948905     -2.1537955452      5.2822000603 
  H40           5.6126117859     -5.3462741886      2.6016224338 
  H41           5.0779229635     -3.6581958709      0.8691452590 
  H42           7.1963994004     -4.5464133240      5.6591225605 
   
  nuclear repulsion energy.......    1540.164891720 hartrees
  -------------------------------------------------
 /  end of geometry optimization iteration   2   /
 -------------------------------------------------
   
  Peak memory usage:   4727 Mb
  
  end of program geopt
   
 Time(geopt)  user:       10.7  user+sys:       10.7  wallclock:        0.9
  
  start of program onee
  
  smallest eigenvalue of S:    6.992E-04
  number of canonical orbitals.....          224
  Peak memory usage:   3812 Mb
  
  end of program onee
   
 Time(onee)  user:        3.5  user+sys:        3.5  wallclock:        0.6
  
  start of program probe
  
  Peak memory usage:   3727 Mb
  
  end of program probe
   
 Time(probe)  user:        3.9  user+sys:        3.9  wallclock:        0.8
  
  start of program grid
  
   grid     grid set  grid #  grid sym
  ------    --------  ------  --------
  coarse        0        0        1
  medium        2        1        1
  fine          0        0        1
  ultrafine     4        2        1
  charge       -1        3        1
  gradient      4        2        1
  density       0        0        1
  DFT-fine    -11        4        1
  DFT-med.    -10        5        1
  DFT-grad    -12        6        1
  DFT-der2      0        0        1
  DFT-cphf      0        0        1
  LMP2-enrg     4        2        1
  LMP2-grad     2        1        1
  DFT-cphf2     0        0        1
  PBF-dens      0        0        1
  plotting      0        0        1
  Rel-grad    -17        0        1
  
  number of gridpoints: 
     atom        C1       C2       C3       H4       C5       C6       C7
  grid # 1       79       86       92       99      100       95       96
  grid # 2      268      294      317      406      358      331      333
  grid # 3        6        6        6      207       20       38      135
  grid # 4     4304     4304     4304     4304     4304     4304     4304
  grid # 5     1192     1192     1192     1192     1192     1192     1192
  grid # 6     5226     5226     5226     5226     5226     5226     5226
   
  number of gridpoints: 
     atom        C8       C9      C10      O11      C12      H13      C14
  grid # 1       97       97       95      114       92      107       86
  grid # 2      359      337      339      429      321      421      289
  grid # 3      204      208      145      789        6      522        6
  grid # 4     4304     4304     4304     4304     4304     4304     4304
  grid # 5     1192     1192     1192     1192     1192     1192     1192
  grid # 6     5226     5226     5226     5226     5226     5226     5226
   
  number of gridpoints: 
     atom       C15      C16      C17      C18      C19      C20      C21
  grid # 1       78      100       96       97       98       96       96
  grid # 2      267      359      336      339      359      334      334
  grid # 3        6       64      117      212      199      129      134
  grid # 4     4304     4304     4304     4304     4304     4304     4304
  grid # 5     1192     1192     1192     1192     1192     1192     1192
  grid # 6     5226     5226     5226     5226     5226     5226     5226
   
  number of gridpoints: 
     atom       O22      H23      H24      H25      H26      H27      H28
  grid # 1      114      109      107      109      105      105      110
  grid # 2      431      440      428      440      418      418      427
  grid # 3      795     1136      735      982      448      502      495
  grid # 4     4304     4304     4304     4304     4304     4304     4304
  grid # 5     1192     1192     1192     1192     1192     1192     1192
  grid # 6     5226     5226     5226     5226     5226     5226     5226
   
  number of gridpoints: 
     atom       H29      H30      H31      H32      H33      H34      H35
  grid # 1      116      118      114      113      108      103      108
  grid # 2      439      451      440      450      432      418      436
  grid # 3      904     1311      955     1325      798      430      981
  grid # 4     4304     4304     4304     4304     4304     4304     4304
  grid # 5     1192     1192     1192     1192     1192     1192     1192
  grid # 6     5226     5226     5226     5226     5226     5226     5226
   
  number of gridpoints: 
     atom       H36      H37      H38      H39      H40      H41      H42
  grid # 1      109      105      110      118      116      112      114
  grid # 2      441      421      429      444      446      432      450
  grid # 3     1134      667      690     1159     1026      739     1341
  grid # 4     4304     4304     4304     4304     4304     4304     4304
  grid # 5     1192     1192     1192     1192     1192     1192     1192
  grid # 6     5226     5226     5226     5226     5226     5226     5226
   
  number of gridpoints: 
     atom     total
  grid # 1     4319
  grid # 2    16261
  grid # 3    21712
  grid # 4   180768
  grid # 5    50064
  grid # 6   219492
   
  Peak memory usage:   3770 Mb
  
  end of program grid
   
 Time(grid)  user:       29.7  user+sys:       29.7  wallclock:        3.0
  
  start of program rwr
  
  Peak memory usage:   3733 Mb
  
  end of program rwr
   
 Time(rwr)  user:       55.6  user+sys:       55.6  wallclock:        5.4
  
  start of program scf
  
 Energy computed with NOPS off.
  
       i  u  d  i  g                   
       t  p  i  c  r                                 RMS    maximum
       e  d  i  u  i                       energy  density   DIIS  
       r  t  s  t  d       total energy    change  change    error 
  
etot    1  N  N  2  U    -849.09291311298           8.6E-04  8.8E-03
etot    2  Y  Y  6  M    -849.10842858636  1.6E-02  2.9E-04  1.8E-03
etot    3  N  Y  2  U    -849.10754519891 -8.8E-04  2.7E-04  4.2E-03
etot    4  Y  Y  6  M    -849.10869978229  1.2E-03  1.5E-04  3.4E-03
etot    5  Y  Y  6  M    -849.10882268602  1.2E-04  7.2E-05  2.2E-03
etot    6  Y  Y  6  M    -849.10887460460  5.2E-05  1.6E-05  4.4E-04
etot    7  N  Y  2  U    -849.10882765669 -4.7E-05  8.7E-06  5.0E-05
etot    8  N  Y  2  U    -849.10882804968  3.9E-07  6.4E-06  4.2E-05
etot    9  N  Y  2  U    -849.10882825197  2.0E-07  3.3E-06  2.6E-05
etot   10  N  N  2  U    -849.10882832841  7.6E-08  0.0E+00  0.0E+00
  
  
 Energy components, in hartrees:
   (A)  Nuclear repulsion............    1540.16489172048
   (E)  Total one-electron terms.....   -4190.07448048923
   (I)  Total two-electron terms.....    1800.80076044033
   (L)  Electronic energy............   -2389.27372004890  (E+I)
   (N)  Total energy.................    -849.10882832841  (A+L)
   (O)  Gas phase energy.............    -849.10882832841
  
                                 Total             Coulomb       Exchange+Corr.
 Total two-electron terms    1800.80076044033    1923.55408007459    -122.75331963426
   Hamiltonian  1........     924.42060455066     968.15512106600     -43.73451651534
   Hamiltonian  2........     912.08296406102     955.39895900859     -43.31599494757
  
 SCFE: SCF energy: UDFT(b3lyp)      -849.10882832841 hartrees   iterations:  10
  
 
 Alpha HOMO energy:    -0.36181
 Alpha LUMO energy:    -0.15873
 
  Alpha Orbital energies (hartrees): 
   -19.33739   -19.32554   -10.41912   -10.40844   -10.35412   -10.34592
   -10.34266   -10.34260   -10.33623   -10.33482   -10.33403   -10.33318
   -10.33215   -10.33206   -10.33173   -10.32940   -10.30036   -10.29685
   -10.27407   -10.27403    -1.22619    -1.21320    -1.01377    -1.00283
    -0.95293    -0.91038    -0.90531    -0.89654    -0.87918    -0.86883
    -0.82556    -0.79050    -0.77455    -0.76476    -0.75174    -0.74036
    -0.71418    -0.69956    -0.69223    -0.68033    -0.64168    -0.62368
    -0.61376    -0.59869    -0.58821    -0.58254    -0.58080    -0.57057
    -0.57005    -0.56606    -0.56327    -0.55320    -0.54607    -0.53261
    -0.52445    -0.52087    -0.51554    -0.50025    -0.49667    -0.48708
    -0.47940    -0.47770    -0.47464    -0.46183    -0.45977    -0.45504
    -0.44524    -0.43534    -0.43310    -0.40804    -0.39101    -0.36961
    -0.36181    -0.15873    -0.15226    -0.14287    -0.13968    -0.07211
    -0.06323    -0.04084    -0.02799    -0.02379    -0.01521
 
 
 Beta HOMO energy:    -0.34284
 Beta LUMO energy:    -0.31568
 
  Beta Orbital energies (hartrees): 
   -19.33411   -19.32288   -10.41703   -10.40674   -10.35165   -10.34532
   -10.34238   -10.34101   -10.33625   -10.33421   -10.33356   -10.33221
   -10.33208   -10.33143   -10.33115   -10.32958   -10.29992   -10.29672
   -10.27406   -10.27401    -1.21914    -1.20746    -1.00955    -0.99925
    -0.94967    -0.90585    -0.90371    -0.89528    -0.87510    -0.86644
    -0.82347    -0.78869    -0.77199    -0.76268    -0.74940    -0.73862
    -0.71265    -0.69774    -0.69083    -0.67894    -0.64013    -0.62204
    -0.61181    -0.59704    -0.58617    -0.58049    -0.57882    -0.56871
    -0.56811    -0.56285    -0.55364    -0.54330    -0.54065    -0.53039
    -0.52214    -0.51860    -0.51324    -0.49814    -0.49518    -0.48384
    -0.47610    -0.47107    -0.46961    -0.45973    -0.45543    -0.45324
    -0.44080    -0.43403    -0.42889    -0.40473    -0.38664    -0.34284
    -0.31568    -0.15024    -0.13951    -0.13426    -0.12915    -0.07078
    -0.06210    -0.03968    -0.02676    -0.02278
 
  
  
    Unrestricted Spin Properties ...
    Sz*(Sz+1)      0.750
    <S**2> ...     0.754
  
  
  Peak memory usage:   5788 Mb
  
  end of program scf
   
 Time(scf)  user:      190.4  user+sys:      190.4  wallclock:       14.6
  
  start of program der1a
  
  Peak memory usage:   3823 Mb
  
  end of program der1a
   
 Time(der1a)  user:        4.2  user+sys:        4.2  wallclock:        0.8
  
  start of program rwr
  
  Peak memory usage:   3744 Mb
  
  end of program rwr
   
 Time(rwr)  user:       41.4  user+sys:       41.4  wallclock:        5.1
  
  start of program der1b
  
   
  forces (hartrees/bohr) : total     
   
 atom  label           x              y              z
 ---- --------   -------------  -------------  -------------
    1 C1          1.101360E-03  -9.769533E-04  -3.471008E-04
    2 C2          3.584250E-03  -4.205879E-04   3.919722E-03
    3 C3         -1.421088E-02   4.196706E-03   2.862828E-03
    4 H4         -3.290180E-03  -5.460225E-04   9.672282E-04
    5 C5         -2.719778E-03   1.491295E-03   2.691736E-03
    6 C6          1.151485E-02   1.606051E-04  -6.436298E-03
    7 C7         -5.410989E-03   3.217550E-03  -2.798589E-03
    8 C8         -6.336218E-03  -1.772233E-03  -1.252841E-03
    9 C9          4.379184E-03  -2.808756E-04   2.023342E-03
   10 C10         1.942177E-03  -4.480658E-03   3.634747E-04
   11 O11         5.348146E-03   3.955988E-03   4.522899E-03
   12 C12         1.277085E-02  -5.158692E-03  -1.410236E-03
   13 H13        -2.112917E-03   2.126152E-03  -1.233143E-03
   14 C14        -1.686613E-03   6.887001E-04  -1.252433E-03
   15 C15         3.129764E-04  -2.811271E-04   8.462007E-04
   16 C16         3.265283E-03   3.803631E-03  -3.692070E-03
   17 C17        -3.074357E-04  -2.082313E-03  -1.917251E-03
   18 C18        -3.641825E-04  -3.556746E-03  -1.008825E-03
   19 C19        -5.633252E-03   4.599225E-03   1.678186E-03
   20 C20         9.099178E-03  -5.722587E-03   2.265790E-03
   21 C21        -8.465905E-03   9.320912E-04   6.794400E-03
   22 O22         3.961362E-03   5.018066E-03  -6.174266E-03
   23 H23        -2.113135E-04   1.910004E-03  -1.130344E-03
   24 H24         4.103309E-04  -4.353143E-04  -8.078255E-04
   25 H25         3.224277E-04   6.761038E-04  -2.288594E-05
   26 H26        -1.428905E-03  -2.447531E-03  -1.193406E-04
   27 H27        -2.624035E-04   2.803743E-04  -2.818059E-04
   28 H28         2.079095E-03  -1.022887E-04  -9.859373E-04
   29 H29        -5.537872E-03  -8.289447E-04   1.085944E-03
   30 H30         1.807439E-03  -1.383537E-03  -7.272200E-04
   31 H31         1.786032E-03   1.064325E-03   6.226513E-04
   32 H32        -2.900411E-03  -1.916259E-04  -9.538207E-04
   33 H33         3.767348E-04  -4.677401E-04   2.502604E-04
   34 H34         2.545195E-04   3.495356E-04  -3.562115E-04
   35 H35        -2.682646E-04  -7.573999E-04   9.785600E-05
   36 H36         5.288163E-04  -1.541455E-04   3.025607E-04
   37 H37        -7.024532E-05   9.962122E-05   2.989677E-04
   38 H38        -2.093245E-03   2.689040E-04  -4.248992E-04
   39 H39        -8.419913E-04  -1.029042E-03   7.553521E-04
   40 H40         5.951149E-03  -3.195266E-04  -5.175131E-04
   41 H41        -2.801160E-03  -7.840615E-05   6.382488E-04
   42 H42        -3.927295E-03  -1.139756E-03   1.037302E-03
 -------------   -------------  -------------  -------------
     total       -8.529877E-05   2.248251E-04   1.740930E-04
   
  Peak memory usage:   5738 Mb
  
  end of program der1b
   
 Time(der1b)  user:       59.4  user+sys:       59.4  wallclock:        4.9
  
  start of program geopt
  
 ----------------------------------------------------------------------------
  Geometry optimization step  3
  Total energy:      -849.10882832841 hartrees
 ----------------------------------------------------------------------------
  
  
  Level shifts adjusted to satisfy step-size constraints
   Step size:    0.3000579
   Cos(theta):   0.8921351
   Final level shift:  -9.4567701E-02
  
  energy change:          -1.3739E-02 .  (  5.0000E-05 )
  gradient maximum:        1.3589E-02 .  (  4.5000E-04 )
  gradient rms:            3.8229E-03 .  (  3.0000E-04 )
  displacement maximum:    9.6977E-02 .  (  1.8000E-03 )
  displacement rms:        2.5630E-02 .  (  1.2000E-03 )
  
  predicted energy change:  -1.0243E-02
  step size:     0.29999
  trust radius:  0.30000
  
  molecular structure not yet converged...
  
  center of mass moved by:
     x:     5.1881E-03     y:     9.3994E-03     z:    -6.5700E-03
  
  new geometry: 
                                   angstroms
  atom               x                 y                 z
  C1            0.8264470472     -0.8870454888      2.9265382184 
  C2            2.2994021534     -0.5797312568      2.6199804192 
  C3            2.8696052360     -1.1848265225      1.2875472585 
  H4            2.5792708715     -0.5108404934      0.4744273771 
  C5            2.2803280510     -2.5168028606      0.9354941206 
  C6            2.3277296325     -3.6421217248      1.8067572775 
  C7            2.0557552920     -4.9185426161      1.3410443978 
  C8            1.5165828341     -5.0743292542      0.0417189296 
  C9            1.2280270152     -3.9434147168     -0.7550832971 
  C10           1.6486613601     -2.6961854495     -0.3272135430 
  O11           1.1745464355     -6.2822796043     -0.4856633977 
  C12           4.4913716638     -1.0826289150      1.2645953965 
  H13           4.7539081703     -1.4121448969      0.2476664255 
  C14           4.9444382101      0.3991839935      1.3828569289 
  C15           4.4482078002      1.3237324618      0.2595154786 
  C16           5.2045844056     -1.9980798137      2.2247663813 
  C17           5.6636131187     -1.5829492427      3.5020608638 
  C18           6.2563615639     -2.4761573773      4.3864295898 
  C19           6.3412243380     -3.8409572459      4.0428092671 
  C20           5.9116441609     -4.2732505271      2.7689460698 
  C21           5.4597582237     -3.3437709292      1.8487050764 
  O22           6.7617076276     -4.8166345094      4.8987470529 
  H23           0.5394163774     -0.4046136441      3.8669793192 
  H24           0.6426253813     -1.9601170381      3.0446374133 
  H25           0.1595633186     -0.5181745094      2.1392298489 
  H26           2.9258724560     -0.9093612350      3.4613567830 
  H27           2.4258604227      0.5075581663      2.5650819887 
  H28           2.6937428311     -3.5156321309      2.8183451310 
  H29           2.2664592871     -5.7880315017      1.9554994951 
  H30           0.7148031103     -4.0878358602     -1.6970405844 
  H31           1.4927465849     -1.8349886277     -0.9675262803 
  H32           1.4177158013     -7.0516630289      0.0712131873 
  H33           6.0414438566      0.4003828103      1.3704645481 
  H34           4.6478886882      0.8126833057      2.3536527336 
  H35           4.7611421610      0.9565208983     -0.7250825768 
  H36           4.8759220212      2.3236555764      0.3855459088 
  H37           3.3592011500      1.4429303878      0.2530095672 
  H38           5.5832680273     -0.5420503735      3.7907062767 
  H39           6.6332694969     -2.1261389011      5.3423618109 
  H40           5.9852608380     -5.3284310003      2.5336921766 
  H41           5.2201451828     -3.6692066728      0.8424850775 
  H42           7.2203916151     -4.4760956581      5.6950204679 
   
  nuclear repulsion energy.......    1538.529529142 hartrees
  -------------------------------------------------
 /  end of geometry optimization iteration   3   /
 -------------------------------------------------
   
  Peak memory usage:   4727 Mb
  
  end of program geopt
   
 Time(geopt)  user:       10.9  user+sys:       10.9  wallclock:        0.9
  
  start of program onee
  
  smallest eigenvalue of S:    6.576E-04
  number of canonical orbitals.....          224
  Peak memory usage:   3812 Mb
  
  end of program onee
   
 Time(onee)  user:        3.4  user+sys:        3.4  wallclock:        0.7
  
  start of program probe
  
  Peak memory usage:   3726 Mb
  
  end of program probe
   
 Time(probe)  user:        2.6  user+sys:        2.6  wallclock:        0.8
  
  start of program grid
  
   grid     grid set  grid #  grid sym
  ------    --------  ------  --------
  coarse        0        0        1
  medium        2        1        1
  fine          0        0        1
  ultrafine     4        2        1
  charge       -1        3        1
  gradient      4        2        1
  density       0        0        1
  DFT-fine    -11        4        1
  DFT-med.    -10        5        1
  DFT-grad    -12        6        1
  DFT-der2      0        0        1
  DFT-cphf      0        0        1
  LMP2-enrg     4        2        1
  LMP2-grad     2        1        1
  DFT-cphf2     0        0        1
  PBF-dens      0        0        1
  plotting      0        0        1
  Rel-grad    -17        0        1
  
  number of gridpoints: 
     atom        C1       C2       C3       H4       C5       C6       C7
  grid # 1       79       86       92      101      100       95       96
  grid # 2      267      294      320      406      357      329      333
  grid # 3        6        6        6      206       25       34      144
  grid # 4     4304     4304     4304     4304     4304     4304     4304
  grid # 5     1192     1192     1192     1192     1192     1192     1192
  grid # 6     5226     5226     5226     5226     5226     5226     5226
   
  number of gridpoints: 
     atom        C8       C9      C10      O11      C12      H13      C14
  grid # 1       98       97       95      114       91      106       86
  grid # 2      357      337      337      425      316      419      289
  grid # 3      202      207      141      776        6      499        6
  grid # 4     4304     4304     4304     4304     4304     4304     4304
  grid # 5     1192     1192     1192     1192     1192     1192     1192
  grid # 6     5226     5226     5226     5226     5226     5226     5226
   
  number of gridpoints: 
     atom       C15      C16      C17      C18      C19      C20      C21
  grid # 1       79      100       95       97       98       95       96
  grid # 2      266      359      335      338      357      336      336
  grid # 3        6       57      106      205      199      144      127
  grid # 4     4304     4304     4304     4304     4304     4304     4304
  grid # 5     1192     1192     1192     1192     1192     1192     1192
  grid # 6     5226     5226     5226     5226     5226     5226     5226
   
  number of gridpoints: 
     atom       O22      H23      H24      H25      H26      H27      H28
  grid # 1      114      109      105      110      105      105      110
  grid # 2      426      442      429      441      418      420      427
  grid # 3      774     1133      719      984      412      508      493
  grid # 4     4304     4304     4304     4304     4304     4304     4304
  grid # 5     1192     1192     1192     1192     1192     1192     1192
  grid # 6     5226     5226     5226     5226     5226     5226     5226
   
  number of gridpoints: 
     atom       H29      H30      H31      H32      H33      H34      H35
  grid # 1      117      118      112      113      108      102      108
  grid # 2      441      451      440      450      433      416      436
  grid # 3      977     1313      946     1336      819      418      976
  grid # 4     4304     4304     4304     4304     4304     4304     4304
  grid # 5     1192     1192     1192     1192     1192     1192     1192
  grid # 6     5226     5226     5226     5226     5226     5226     5226
   
  number of gridpoints: 
     atom       H36      H37      H38      H39      H40      H41      H42
  grid # 1      109      105      108      118      117      113      114
  grid # 2      442      422      428      444      447      436      450
  grid # 3     1133      680      628     1158     1128      800     1343
  grid # 4     4304     4304     4304     4304     4304     4304     4304
  grid # 5     1192     1192     1192     1192     1192     1192     1192
  grid # 6     5226     5226     5226     5226     5226     5226     5226
   
  number of gridpoints: 
     atom     total
  grid # 1     4316
  grid # 2    16252
  grid # 3    21786
  grid # 4   180768
  grid # 5    50064
  grid # 6   219492
   
  Peak memory usage:   3771 Mb
  
  end of program grid
   
 Time(grid)  user:       31.3  user+sys:       31.3  wallclock:        2.9
  
  start of program rwr
  
  Peak memory usage:   3735 Mb
  
  end of program rwr
   
 Time(rwr)  user:       61.1  user+sys:       61.1  wallclock:        5.7
  
  start of program scf
  
 Energy computed with NOPS off.
  
       i  u  d  i  g                   
       t  p  i  c  r                                 RMS    maximum
       e  d  i  u  i                       energy  density   DIIS  
       r  t  s  t  d       total energy    change  change    error 
  
etot    1  N  N  2  U    -849.08473812665           1.1E-03  1.7E-02
etot    2  Y  Y  6  M    -849.11725664469  3.3E-02  2.8E-04  2.5E-03
etot    3  N  Y  2  U    -849.11701364260 -2.4E-04  2.6E-04  4.3E-03
etot    4  Y  Y  6  M    -849.11771153785  7.0E-04  1.7E-04  4.1E-03
etot    5  Y  Y  6  M    -849.11786450274  1.5E-04  7.6E-05  2.3E-03
etot    6  Y  Y  6  M    -849.11793862279  7.4E-05  1.5E-05  3.5E-04
etot    7  N  Y  2  U    -849.11789109345 -4.8E-05  7.9E-06  5.2E-05
etot    8  N  Y  2  U    -849.11789147440  3.8E-07  3.9E-06  3.8E-05
etot    9  N  N  2  U    -849.11789163601  1.6E-07  0.0E+00  0.0E+00
  
  
 Energy components, in hartrees:
   (A)  Nuclear repulsion............    1538.52952914218
   (E)  Total one-electron terms.....   -4186.84967595292
   (I)  Total two-electron terms.....    1799.20225517473
   (L)  Electronic energy............   -2387.64742077819  (E+I)
   (N)  Total energy.................    -849.11789163601  (A+L)
   (O)  Gas phase energy.............    -849.11789163601
  
                                 Total             Coulomb       Exchange+Corr.
 Total two-electron terms    1799.20225517473    1921.99442746469    -122.79217228996
   Hamiltonian  1........     923.62312400935     967.37210448189     -43.74898047253
   Hamiltonian  2........     911.29234760643     954.62232298280     -43.32997537637
  
 SCFE: SCF energy: UDFT(b3lyp)      -849.11789163601 hartrees   iterations:   9
  
 
 Alpha HOMO energy:    -0.36156
 Alpha LUMO energy:    -0.15421
 
  Alpha Orbital energies (hartrees): 
   -19.33594   -19.32565   -10.41623   -10.40646   -10.35048   -10.34345
   -10.34205   -10.33980   -10.33421   -10.33276   -10.33208   -10.33201
   -10.33165   -10.33094   -10.33009   -10.32910   -10.29933   -10.29691
   -10.27399   -10.27347    -1.22747    -1.21706    -1.01359    -1.00345
    -0.95339    -0.91225    -0.90361    -0.89614    -0.87955    -0.86994
    -0.82551    -0.79171    -0.77531    -0.76634    -0.75095    -0.74037
    -0.71300    -0.69973    -0.69264    -0.68107    -0.64198    -0.62530
    -0.61292    -0.59803    -0.58662    -0.58222    -0.57894    -0.57000
    -0.56889    -0.56646    -0.56288    -0.55522    -0.54570    -0.53327
    -0.52351    -0.51992    -0.51462    -0.49975    -0.49719    -0.48550
    -0.47902    -0.47731    -0.47557    -0.46232    -0.45999    -0.45557
    -0.44457    -0.43582    -0.43257    -0.40615    -0.39256    -0.37012
    -0.36156    -0.15421    -0.14953    -0.14033    -0.13852    -0.07041
    -0.06232    -0.03855    -0.02451    -0.02359    -0.01373
 
 
 Beta HOMO energy:    -0.34353
 Beta LUMO energy:    -0.31513
 
  Beta Orbital energies (hartrees): 
   -19.33267   -19.32297   -10.41417   -10.40480   -10.34813   -10.34278
   -10.34038   -10.33955   -10.33417   -10.33236   -10.33155   -10.33146
   -10.33133   -10.33028   -10.32950   -10.32897   -10.29895   -10.29674
   -10.27397   -10.27344    -1.22046    -1.21132    -1.00938    -0.99985
    -0.95003    -0.90777    -0.90202    -0.89486    -0.87555    -0.86755
    -0.82333    -0.78992    -0.77273    -0.76426    -0.74867    -0.73859
    -0.71142    -0.69790    -0.69123    -0.67970    -0.64047    -0.62373
    -0.61093    -0.59639    -0.58464    -0.57997    -0.57690    -0.56817
    -0.56657    -0.56281    -0.55390    -0.54483    -0.54060    -0.53123
    -0.52135    -0.51780    -0.51220    -0.49768    -0.49585    -0.48184
    -0.47643    -0.47084    -0.46925    -0.45993    -0.45607    -0.45417
    -0.44041    -0.43421    -0.42814    -0.40284    -0.38870    -0.34353
    -0.31513    -0.14595    -0.13740    -0.13245    -0.12652    -0.06914
    -0.06125    -0.03766    -0.02363    -0.02258
 
  
  
    Unrestricted Spin Properties ...
    Sz*(Sz+1)      0.750
    <S**2> ...     0.754
  
  
  Peak memory usage:   5788 Mb
  
  end of program scf
   
 Time(scf)  user:      170.7  user+sys:      170.7  wallclock:       13.3
  
  start of program der1a
  
  Peak memory usage:   3824 Mb
  
  end of program der1a
   
 Time(der1a)  user:        5.9  user+sys:        5.9  wallclock:        1.0
  
  start of program rwr
  
  Peak memory usage:   3743 Mb
  
  end of program rwr
   
 Time(rwr)  user:       43.9  user+sys:       43.9  wallclock:        5.3
  
  start of program der1b
  
   
  forces (hartrees/bohr) : total     
   
 atom  label           x              y              z
 ---- --------   -------------  -------------  -------------
    1 C1         -7.694200E-04  -9.405930E-05   9.275789E-05
    2 C2          5.534194E-03  -1.343255E-03   3.127146E-03
    3 C3         -1.331860E-02   6.521846E-03   6.679614E-03
    4 H4         -7.321342E-05   2.557344E-04   1.105117E-04
    5 C5         -2.805689E-04  -1.532501E-03  -3.218195E-04
    6 C6          1.221456E-02  -1.690395E-03  -1.929241E-03
    7 C7         -2.068787E-03   1.538020E-03   1.160389E-03
    8 C8         -7.116760E-03  -4.788308E-04   3.121745E-04
    9 C9          2.708663E-03   1.151038E-03  -1.240880E-03
   10 C10         1.478762E-03  -1.658541E-03  -1.706953E-03
   11 O11         3.250940E-03  -7.189455E-04   5.450058E-04
   12 C12         6.368807E-03  -2.262466E-03  -6.337451E-03
   13 H13        -4.348063E-04  -1.034542E-03   7.749303E-04
   14 C14        -1.074794E-03   1.712716E-03   3.549534E-04
   15 C15         3.352318E-04   5.211128E-05   7.929811E-06
   16 C16         3.432766E-03   2.891198E-05  -3.456536E-03
   17 C17         6.127502E-04   7.579840E-04   4.888790E-04
   18 C18         9.919140E-04   5.614826E-04   1.919049E-03
   19 C19        -6.797465E-03   1.851241E-03   8.705514E-04
   20 C20         6.150783E-03  -1.566175E-03  -3.446210E-03
   21 C21        -9.141230E-03  -1.845387E-03   2.782789E-03
   22 O22         6.175759E-03   1.248941E-03  -3.712073E-04
   23 H23        -6.653202E-04   1.053639E-03  -8.451401E-04
   24 H24        -1.762092E-04   5.170803E-04  -2.888653E-04
   25 H25        -5.235965E-05   3.289787E-04   5.273856E-05
   26 H26        -1.432376E-03  -1.519984E-03  -5.192003E-05
   27 H27         2.862817E-04  -5.973478E-06  -2.930772E-04
   28 H28         1.488439E-03  -5.946806E-04  -5.688317E-04
   29 H29        -3.438360E-03   4.657970E-05   1.566670E-03
   30 H30         1.078433E-03  -2.213387E-04  -7.882100E-04
   31 H31         7.903510E-04   1.869066E-04  -2.955541E-04
   32 H32        -1.653373E-03   3.482945E-04  -2.022194E-04
   33 H33         1.841088E-04  -2.539262E-04   2.455955E-04
   34 H34        -8.347674E-06   5.016310E-04  -1.869396E-04
   35 H35        -6.077582E-04  -3.387917E-04  -9.338312E-05
   36 H36         2.306238E-04  -2.493370E-05   3.901519E-06
   37 H37         1.050107E-04  -1.992990E-05   1.116208E-04
   38 H38        -1.266794E-03  -5.748853E-04   7.826630E-04
   39 H39        -7.997432E-04  -3.332173E-04   4.539475E-04
   40 H40         2.505829E-03   6.057885E-04  -1.145903E-03
   41 H41        -1.970184E-03  -5.413804E-05   4.510858E-04
   42 H42        -2.615256E-03  -9.835056E-04   1.212894E-03
 -------------   -------------  -------------  -------------
     total        1.624790E-04   1.185227E-04   5.374551E-04
   
  Peak memory usage:   5738 Mb
  
  end of program der1b
   
 Time(der1b)  user:       57.2  user+sys:       57.2  wallclock:        4.8
  
  start of program geopt
  
 ----------------------------------------------------------------------------
  Geometry optimization step  4
  Total energy:      -849.11789163601 hartrees
 ----------------------------------------------------------------------------
  
  
  Level shifts adjusted to satisfy step-size constraints
   Step size:    0.3000279
   Cos(theta):   0.9044165
   Final level shift:  -5.2513203E-02
  
  energy change:          -9.0633E-03 .  (  5.0000E-05 )
  gradient maximum:        7.9933E-03 .  (  4.5000E-04 )
  gradient rms:            2.3185E-03 .  (  3.0000E-04 )
  displacement maximum:    8.7769E-02 .  (  1.8000E-03 )
  displacement rms:        2.5631E-02 .  (  1.2000E-03 )
  
  predicted energy change:  -6.0458E-03
  step size:     0.30000
  trust radius:  0.30000
  
  molecular structure not yet converged...
  
  center of mass moved by:
     x:     1.1698E-02     y:    -1.5308E-03     z:    -3.0576E-03
  
  new geometry: 
                                   angstroms
  atom               x                 y                 z
  C1            0.7879455701     -0.8257850997      2.9153362381 
  C2            2.2843572463     -0.5942344721      2.6549474437 
  C3            2.8462558587     -1.1899958941      1.3163011772 
  H4            2.5646869556     -0.4975287288      0.5156242239 
  C5            2.2799087805     -2.5256322873      0.9386999343 
  C6            2.3198753067     -3.6543328377      1.8044058753 
  C7            1.9888844172     -4.9201905518      1.3524246874 
  C8            1.4726014687     -5.0749161747      0.0431611095 
  C9            1.2648668647     -3.9479531576     -0.7834312237 
  C10           1.6940287441     -2.7063428161     -0.3474763230 
  O11           1.0891586322     -6.2756631588     -0.4661114169 
  C12           4.4757507147     -1.0965419708      1.2797482423 
  H13           4.7226309571     -1.4344535185      0.2626654262 
  C14           4.9343387848      0.3880398687      1.3849556121 
  C15           4.4329483929      1.2990206364      0.2553521431 
  C16           5.1840271263     -2.0133043087      2.2352556802 
  C17           5.5910227923     -1.6061896699      3.5348468169 
  C18           6.2139971738     -2.4857205199      4.4122582444 
  C19           6.4132350087     -3.8246622423      4.0228077003 
  C20           6.0378148215     -4.2506782240      2.7277367446 
  C21           5.4960733006     -3.3391175966      1.8394379453 
  O22           6.9055122642     -4.7883827095      4.8531360116 
  H23           0.4963401962     -0.3371389016      3.8509070328 
  H24           0.5416741410     -1.8876476093      3.0108682693 
  H25           0.1678244249     -0.4096697255      2.1131776687 
  H26           2.8707979302     -0.9824857007      3.4990150418 
  H27           2.4735903472      0.4852128547      2.6325200214 
  H28           2.6980742130     -3.5373479808      2.8127673351 
  H29           2.1304952022     -5.7888373311      1.9878657733 
  H30           0.7959193293     -4.0933825858     -1.7483864781 
  H31           1.5801799112     -1.8445973321     -0.9965908077 
  H32           1.2590029795     -7.0417269301      0.1193866280 
  H33           6.0317472481      0.3848422159      1.3693858364 
  H34           4.6418732537      0.8169091543      2.3501630811 
  H35           4.7192700027      0.9073731342     -0.7280491082 
  H36           4.8829383801      2.2923441365      0.3543734098 
  H37           3.3465671765      1.4379316512      0.2693079573 
  H38           5.4417865365     -0.5804360082      3.8477964749 
  H39           6.5359368729     -2.1463011916      5.3917977195 
  H40           6.2334363524     -5.2798961384      2.4522444400 
  H41           5.2614960539     -3.6568553578      0.8290621723 
  H42           7.2810485857     -4.4480889415      5.6905394571 
   
  nuclear repulsion energy.......    1535.375347432 hartrees
  -------------------------------------------------
 /  end of geometry optimization iteration   4   /
 -------------------------------------------------
   
  Peak memory usage:   4727 Mb
  
  end of program geopt
   
 Time(geopt)  user:       10.8  user+sys:       10.8  wallclock:        0.9
  
  start of program onee
  
  smallest eigenvalue of S:    6.366E-04
  number of canonical orbitals.....          224
  Peak memory usage:   3812 Mb
  
  end of program onee
   
 Time(onee)  user:        3.5  user+sys:        3.5  wallclock:        0.5
  
  start of program probe
  
  Peak memory usage:   3728 Mb
  
  end of program probe
   
 Time(probe)  user:        3.4  user+sys:        3.4  wallclock:        0.8
  
  start of program grid
  
   grid     grid set  grid #  grid sym
  ------    --------  ------  --------
  coarse        0        0        1
  medium        2        1        1
  fine          0        0        1
  ultrafine     4        2        1
  charge       -1        3        1
  gradient      4        2        1
  density       0        0        1
  DFT-fine    -11        4        1
  DFT-med.    -10        5        1
  DFT-grad    -12        6        1
  DFT-der2      0        0        1
  DFT-cphf      0        0        1
  LMP2-enrg     4        2        1
  LMP2-grad     2        1        1
  DFT-cphf2     0        0        1
  PBF-dens      0        0        1
  plotting      0        0        1
  Rel-grad    -17        0        1
  
  number of gridpoints: 
     atom        C1       C2       C3       H4       C5       C6       C7
  grid # 1       78       86       91      100      100       95       96
  grid # 2      267      293      320      406      359      331      335
  grid # 3        6        6        6      192       28       37      152
  grid # 4     4304     4304     4304     4304     4304     4304     4304
  grid # 5     1192     1192     1192     1192     1192     1192     1192
  grid # 6     5226     5226     5226     5226     5226     5226     5226
   
  number of gridpoints: 
     atom        C8       C9      C10      O11      C12      H13      C14
  grid # 1       97       97       95      114       91      106       86
  grid # 2      359      336      337      425      318      418      288
  grid # 3      210      205      141      775        6      472        6
  grid # 4     4304     4304     4304     4304     4304     4304     4304
  grid # 5     1192     1192     1192     1192     1192     1192     1192
  grid # 6     5226     5226     5226     5226     5226     5226     5226
   
  number of gridpoints: 
     atom       C15      C16      C17      C18      C19      C20      C21
  grid # 1       78      100       95       97       97       95       96
  grid # 2      267      361      335      337      355      336      334
  grid # 3        6       49      106      203      201      158      125
  grid # 4     4304     4304     4304     4304     4304     4304     4304
  grid # 5     1192     1192     1192     1192     1192     1192     1192
  grid # 6     5226     5226     5226     5226     5226     5226     5226
   
  number of gridpoints: 
     atom       O22      H23      H24      H25      H26      H27      H28
  grid # 1      114      110      107      110      105      105      111
  grid # 2      426      443      431      440      421      418      428
  grid # 3      771     1132      755      981      409      501      501
  grid # 4     4304     4304     4304     4304     4304     4304     4304
  grid # 5     1192     1192     1192     1192     1192     1192     1192
  grid # 6     5226     5226     5226     5226     5226     5226     5226
   
  number of gridpoints: 
     atom       H29      H30      H31      H32      H33      H34      H35
  grid # 1      117      118      111      113      108      103      108
  grid # 2      442      450      440      450      436      414      436
  grid # 3     1010     1309      943     1333      842      421      962
  grid # 4     4304     4304     4304     4304     4304     4304     4304
  grid # 5     1192     1192     1192     1192     1192     1192     1192
  grid # 6     5226     5226     5226     5226     5226     5226     5226
   
  number of gridpoints: 
     atom       H36      H37      H38      H39      H40      H41      H42
  grid # 1      110      105      109      118      117      113      114
  grid # 2      442      421      427      444      448      436      451
  grid # 3     1132      689      619     1152     1180      796     1339
[...]
   
  Peak memory usage:   4727 Mb
  
  end of program geopt
   
 Time(geopt)  user:       11.2  user+sys:       11.2  wallclock:        0.9
  
  start of program onee
  
  smallest eigenvalue of S:    6.161E-04
  number of canonical orbitals.....          224
  Peak memory usage:   3812 Mb
  
  end of program onee
   
 Time(onee)  user:        4.0  user+sys:        4.0  wallclock:        0.8
  
  start of program probe
  
  Peak memory usage:   3727 Mb
  
  end of program probe
   
 Time(probe)  user:        2.5  user+sys:        2.5  wallclock:        0.7
  
  start of program grid
  
   grid     grid set  grid #  grid sym
  ------    --------  ------  --------
  coarse        0        0        1
  medium        2        1        1
  fine          0        0        1
  ultrafine     4        2        1
  charge       -1        3        1
  gradient      4        2        1
  density       0        0        1
  DFT-fine    -11        4        1
  DFT-med.    -10        5        1
  DFT-grad    -12        6        1
  DFT-der2      0        0        1
  DFT-cphf      0        0        1
  LMP2-enrg     4        2        1
  LMP2-grad     2        1        1
  DFT-cphf2     0        0        1
  PBF-dens      0        0        1
  plotting      0        0        1
  Rel-grad    -17        0        1
  
  number of gridpoints: 
     atom        C1       C2       C3       H4       C5       C6       C7
  grid # 1       77       86       92      100      100       95       96
  grid # 2      271      291      315      405      355      332      337
  grid # 3        6        6        6      193       35       54      165
  grid # 4     4304     4304     4304     4304     4304     4304     4304
  grid # 5     1192     1192     1192     1192     1192     1192     1192
  grid # 6     5226     5226     5226     5226     5226     5226     5226
   
  number of gridpoints: 
     atom        C8       C9      C10      O11      C12      H13      C14
  grid # 1       97       97       96      114       91      107       86
  grid # 2      360      336      336      425      319      415      290
  grid # 3      219      206      138      777        6      392        6
  grid # 4     4304     4304     4304     4304     4304     4304     4304
  grid # 5     1192     1192     1192     1192     1192     1192     1192
  grid # 6     5226     5226     5226     5226     5226     5226     5226
   
  number of gridpoints: 
     atom       C15      C16      C17      C18      C19      C20      C21
  grid # 1       78      100       95       96       99       96       96
  grid # 2      266      361      333      337      357      337      337
  grid # 3        6       55       91      199      226      193      137
  grid # 4     4304     4304     4304     4304     4304     4304     4304
  grid # 5     1192     1192     1192     1192     1192     1192     1192
  grid # 6     5226     5226     5226     5226     5226     5226     5226
   
  number of gridpoints: 
     atom       O22      H23      H24      H25      H26      H27      H28
  grid # 1      114      111      108      110      105      103      109
  grid # 2      425      444      437      438      418      419      428
  grid # 3      777     1142      829      970      456      421      609
  grid # 4     4304     4304     4304     4304     4304     4304     4304
  grid # 5     1192     1192     1192     1192     1192     1192     1192
  grid # 6     5226     5226     5226     5226     5226     5226     5226
   
  number of gridpoints: 
     atom       H29      H30      H31      H32      H33      H34      H35
  grid # 1      118      118      111      114      108      104      108
  grid # 2      443      449      435      450      435      417      437
  grid # 3     1108     1305      774     1335      811      490      945
  grid # 4     4304     4304     4304     4304     4304     4304     4304
  grid # 5     1192     1192     1192     1192     1192     1192     1192
  grid # 6     5226     5226     5226     5226     5226     5226     5226
   
  number of gridpoints: 
     atom       H36      H37      H38      H39      H40      H41      H42
  grid # 1      109      106      111      118      118      113      114
  grid # 2      442      421      426      444      447      438      450
  grid # 3     1139      706      595     1145     1270      813     1333
  grid # 4     4304     4304     4304     4304     4304     4304     4304
  grid # 5     1192     1192     1192     1192     1192     1192     1192
  grid # 6     5226     5226     5226     5226     5226     5226     5226
   
  number of gridpoints: 
     atom     total
  grid # 1     4324
  grid # 2    16258
  grid # 3    22089
  grid # 4   180768
  grid # 5    50064
  grid # 6   219492
   
  Peak memory usage:   3771 Mb
  
  end of program grid
   
 Time(grid)  user:       30.1  user+sys:       30.1  wallclock:        2.6
  
  start of program rwr
  
  Peak memory usage:   3742 Mb
  
  end of program rwr
   
 Time(rwr)  user:       60.8  user+sys:       60.8  wallclock:        5.7
  
  start of program scf
  
 Energy computed with NOPS off.
  
       i  u  d  i  g                   
       t  p  i  c  r                                 RMS    maximum
       e  d  i  u  i                       energy  density   DIIS  
       r  t  s  t  d       total energy    change  change    error 
  
etot    1  N  N  2  U    -849.13305403111           4.4E-05  5.5E-04
etot    2  N  Y  2  U    -849.13311177757  5.8E-05  5.3E-05  3.7E-04
etot    3  Y  Y  6  M    -849.13307689955 -3.5E-05  4.4E-05  1.7E-03
etot    4  N  Y  2  U    -849.13311446004  3.8E-05  3.1E-06  1.2E-04
etot    5  N  N  2  U    -849.13311480470  3.4E-07  0.0E+00  0.0E+00
  
  
 Energy components, in hartrees:
   (A)  Nuclear repulsion............    1520.79001547004
   (E)  Total one-electron terms.....   -4151.54805117914
   (I)  Total two-electron terms.....    1781.62492090440
   (L)  Electronic energy............   -2369.92313027474  (E+I)
   (N)  Total energy.................    -849.13311480470  (A+L)
   (O)  Gas phase energy.............    -849.13311480470
  
                                 Total             Coulomb       Exchange+Corr.
 Total two-electron terms    1781.62492090440    1904.41409688157    -122.78917597718
   Hamiltonian  1........     914.77903088269     958.52672177430     -43.74769089162
   Hamiltonian  2........     902.55839436985     945.88737510727     -43.32898073742
  
 SCFE: SCF energy: UDFT(b3lyp)      -849.13311480470 hartrees   iterations:   5
  
 
 Alpha HOMO energy:    -0.35652
 Alpha LUMO energy:    -0.14816
 
  Alpha Orbital energies (hartrees): 
   -19.32757   -19.32596   -10.40975   -10.40784   -10.34588   -10.34358
   -10.33747   -10.33476   -10.33369   -10.33349   -10.33296   -10.33283
   -10.33084   -10.32962   -10.32895   -10.32750   -10.30004   -10.29920
   -10.27666   -10.27372    -1.21971    -1.21776    -1.01009    -1.00225
    -0.95319    -0.91143    -0.89859    -0.89713    -0.87788    -0.87368
    -0.82330    -0.79036    -0.77082    -0.76618    -0.74881    -0.74153
    -0.71093    -0.69462    -0.69319    -0.68635    -0.63836    -0.62776
    -0.60815    -0.60079    -0.58536    -0.58107    -0.57702    -0.56912
    -0.56753    -0.56046    -0.55938    -0.55528    -0.54101    -0.53769
    -0.52155    -0.51833    -0.51157    -0.50109    -0.49151    -0.48229
    -0.47973    -0.47777    -0.47517    -0.46527    -0.46391    -0.45353
    -0.44440    -0.44241    -0.43513    -0.40081    -0.39601    -0.36979
    -0.35652    -0.14816    -0.14697    -0.13786    -0.13517    -0.06388
    -0.06205    -0.03927    -0.02696    -0.02285    -0.01480
 
 
 Beta HOMO energy:    -0.34359
 Beta LUMO energy:    -0.30987
 
  Beta Orbital energies (hartrees): 
   -19.32465   -19.32311   -10.40785   -10.40600   -10.34386   -10.34172
   -10.33687   -10.33448   -10.33326   -10.33269   -10.33258   -10.33194
   -10.33063   -10.32957   -10.32830   -10.32716   -10.29978   -10.29914
   -10.27663   -10.27368    -1.21344    -1.21166    -1.00611    -0.99841
    -0.94970    -0.90747    -0.89708    -0.89575    -0.87408    -0.87104
    -0.82069    -0.78838    -0.76836    -0.76391    -0.74683    -0.73982
    -0.70926    -0.69297    -0.69167    -0.68471    -0.63687    -0.62626
    -0.60625    -0.59920    -0.58356    -0.57907    -0.57375    -0.56866
    -0.56658    -0.55819    -0.54742    -0.54342    -0.53751    -0.53548
    -0.52024    -0.51638    -0.50901    -0.49907    -0.48996    -0.47732
    -0.47697    -0.47226    -0.46977    -0.46268    -0.45951    -0.45258
    -0.44263    -0.44081    -0.42671    -0.39765    -0.39268    -0.34359
    -0.30987    -0.14042    -0.13512    -0.13149    -0.12064    -0.06276
    -0.06096    -0.03876    -0.02619    -0.02218
 
  
  
    Unrestricted Spin Properties ...
    Sz*(Sz+1)      0.750
    <S**2> ...     0.754
  
  
  Peak memory usage:   5788 Mb
  
  end of program scf
   
 Time(scf)  user:      116.7  user+sys:      116.7  wallclock:        9.6
  
  start of program der1a
  
  Peak memory usage:   3824 Mb
  
  end of program der1a
   
 Time(der1a)  user:        4.6  user+sys:        4.6  wallclock:        1.0
  
  start of program rwr
  
  Peak memory usage:   3747 Mb
  
  end of program rwr
   
 Time(rwr)  user:       46.5  user+sys:       46.5  wallclock:        5.8
  
  start of program der1b
  
   
  forces (hartrees/bohr) : total     
   
 atom  label           x              y              z
 ---- --------   -------------  -------------  -------------
    1 C1         -2.941210E-05  -2.414729E-05   5.806522E-06
    2 C2          5.964276E-05   3.108133E-05   5.410293E-05
    3 C3         -1.745511E-04  -1.085684E-04  -3.724608E-05
    4 H4          6.696067E-05   9.566166E-06  -3.091287E-05
    5 C5          3.111022E-05   2.118717E-05  -3.424507E-05
    6 C6          5.544434E-05  -6.295717E-05  -1.992018E-05
    7 C7          1.271360E-05   2.400814E-05   1.165700E-05
    8 C8          2.395651E-05   6.185787E-05  -7.385833E-06
    9 C9         -1.224070E-05  -2.651061E-05   6.247186E-05
   10 C10        -1.807927E-06  -1.029976E-04   2.413919E-05
   11 O11        -1.886580E-05  -3.059412E-05   2.630716E-05
   12 C12         1.868096E-04   4.016228E-05   3.452468E-05
   13 H13        -9.219693E-05  -3.171801E-07   1.446697E-05
   14 C14        -6.699462E-05  -5.208654E-06   2.490711E-05
   15 C15        -3.365966E-06  -7.664944E-06  -1.590432E-05
   16 C16        -4.973572E-05   4.149271E-05   2.059579E-05
   17 C17        -3.270094E-05   1.464661E-05   1.714639E-05
   18 C18         2.339358E-05   1.908286E-05   2.127698E-05
   19 C19         1.062614E-05   6.680320E-06   4.830743E-05
   20 C20         4.194723E-05  -6.957415E-05   3.010045E-05
   21 C21        -1.753394E-05  -7.777416E-05  -1.318077E-07
   22 O22         2.710695E-06  -4.227735E-06  -1.267758E-05
   23 H23         5.768290E-06  -9.208925E-06   2.268949E-05
   24 H24         1.157192E-06   3.278411E-06   2.558223E-05
   25 H25         7.383201E-06  -1.984673E-05   2.116408E-05
   26 H26         1.721571E-05   1.838998E-05   2.504043E-05
   27 H27        -4.239418E-06   3.711722E-06   5.490920E-05
   28 H28        -2.564995E-05   7.707686E-06   4.155326E-05
   29 H29         2.126033E-06  -2.188989E-06   3.142714E-05
   30 H30        -1.331691E-06  -1.198707E-05   3.856790E-05
   31 H31        -1.688217E-05   5.492575E-06   1.615545E-05
   32 H32         7.508211E-06  -3.718284E-05   3.263045E-05
   33 H33        -1.385903E-05   2.355829E-05   4.794900E-07
   34 H34         2.388271E-05  -2.484088E-07   7.004386E-06
   35 H35        -1.461653E-05  -2.807043E-06   3.258729E-06
   36 H36        -1.435262E-05   2.564102E-06  -4.977040E-07
   37 H37        -7.973107E-06  -2.690137E-05   1.733440E-05
   38 H38        -2.093024E-06   7.245306E-06   8.134229E-06
   39 H39        -3.324978E-06   7.480155E-06   1.454450E-05
   40 H40         1.492357E-05  -2.708588E-07   1.527725E-05
   41 H41         2.882531E-05   7.429867E-06   3.451289E-05
   42 H42        -3.399178E-06   2.235940E-05  -6.223673E-06
 -------------   -------------  -------------  -------------
     total        1.697809E-05  -2.522013E-04   6.409309E-04
   
  Peak memory usage:   5738 Mb
  
  end of program der1b
   
 Time(der1b)  user:       58.0  user+sys:       58.0  wallclock:        4.9
  
  start of program geopt
  
 ----------------------------------------------------------------------------
  Geometry optimization step 15
  Total energy:      -849.13311480470 hartrees
 ----------------------------------------------------------------------------
  
  energy change:           3.3724E-06 *  (  5.0000E-05 )
  gradient maximum:        2.3500E-04 *  (  4.5000E-04 )
  gradient rms:            4.8621E-05 #  (  3.0000E-04 )
  displacement maximum:    2.0571E-03 .  (  1.8000E-03 )
  displacement rms:        3.9381E-04 *  (  1.2000E-03 )
  
  predicted energy change:  -5.2426E-07
  step size:     0.00461
  trust radius:  0.30000
  
  ********************************************************
  **           Geometry optimization complete           **
  ********************************************************
  
  Checking the geometry optimization convergence pattern ...
  
  WARNING:
  The energy on the last optimization iteration,
     -849.133114804704
  is higher than the energy on one of the previous iterations,
     -849.133118177135
  The difference between these two energies is 0.002 kcal/mole.
  This situation is symptomatic of potential problems with the
  initial and/or the converged structures.
  
  best                    worst
  ==0=====1=====2=====3=====4==
                      ^        
  
  Convergence category 3: convergence to a non-optimal structure.
  The difference between the final and the minimal
  energies is less than 0.010 kcal/mole.
  Peudospectral approximation:
  Geometry optimization was OK.
  
  Number of imaginary frequencies:   0
  
  center of mass moved by:
     x:     0.0000E+00     y:     0.0000E+00     z:     0.0000E+00
  
  final geometry: 
                                   angstroms
  atom               x                 y                 z
  C1            0.8404498542     -0.8578342075      3.1863613089 
  C2            2.3512295171     -1.1119537439      3.0351841413 
  C3            2.7680586926     -1.3802759290      1.5738859176 
  H4            2.3972153882     -0.5491878902      0.9610892779 
  C5            2.2292329935     -2.6409550088      0.9670859778 
  C6            2.0240361115     -3.8348314235      1.7079052886 
  C7            1.5143426454     -4.9765018939      1.1070160759 
  C8            1.2021773248     -4.9571963065     -0.2725598149 
  C9            1.4099584996     -3.7881118426     -1.0387079688 
  C10           1.9165140443     -2.6593370165     -0.4226142520 
  O11           0.6987002137     -6.0336739252     -0.9383369491 
  C12           4.4035709028     -1.2583558409      1.3386978695 
  H13           4.5737466159     -1.7046258445      0.3524947060 
  C14           4.7963286202      0.2458918064      1.2491913899 
  C15           4.3935619518      0.9101254555     -0.0769566086 
  C16           5.1877064434     -2.0432352223      2.3445735256 
  C17           5.6039966667     -1.4848573666      3.5845472743 
  C18           6.3584482493     -2.2161754610      4.4898988638 
  C19           6.7120715250     -3.5472324877      4.1803370544 
  C20           6.3052892094     -4.1324833700      2.9583982276 
  C21           5.5552374668     -3.3872959000      2.0662493117 
  O22           7.4466733329     -4.3401331479      5.0110905606 
  H23           0.5930558678     -0.6221535614      4.2263915351 
  H24           0.2497072697     -1.7314081556      2.8900597951 
  H25           0.5183650268     -0.0112564572      2.5684676825 
  H26           2.6597735861     -1.9398537029      3.6845936897 
  H27           2.8933211670     -0.2291900148      3.3941959736 
  H28           2.2585542402     -3.8606459768      2.7650915106 
  H29           1.3520132927     -5.8780720040      1.6896689512 
  H30           1.1556690941     -3.8053614259     -2.0910623306 
  H31           2.0673963419     -1.7575117208     -1.0071103047 
  H32           0.5499844940     -6.8248980445     -0.3813492405 
  H33           5.8855091124      0.3155585981      1.3575944411 
  H34           4.3648016309      0.8051130494      2.0890984824 
  H35           4.8419471675      0.3892396374     -0.9311676730 
  H36           4.7442867030      1.9468638882     -0.1007370868 
  H37           3.3078666832      0.9368738897     -0.2257038930 
  H38           5.3474882992     -0.4605378361      3.8251608355 
  H39           6.6803287679     -1.7679521390      5.4246582355 
  H40           6.6038088475     -5.1521617504      2.7491883293 
  H41           5.2524678514     -3.8324260825      1.1244970208 
  H42           7.7233319561     -3.9079087228      5.8448213721 
   
  principal moments of inertia:
        amu*angstrom^2:     1237.65160     2268.80197     2840.89731
                g*cm^2: 2.05516858E-37 3.76743384E-37 4.71742037E-37
   
  rotational constants:
               cm^(-1):      0.01362066      0.00743019      0.00593391
                   GHz:      0.40833705      0.22275148      0.17789415
   
  nuclear repulsion energy.......    1520.790015470 hartrees
  -------------------------------------------------
 /  end of geometry optimization iteration  15   /
 -------------------------------------------------
   
  Peak memory usage:   4821 Mb
  
  end of program geopt
   
 Time(geopt)  user:       12.6  user+sys:       12.6  wallclock:        1.6
  
  start of program ch
  
  Moments from quantum mechanical wavefunction:
  Dipole Moments  (Debye)
     X=     0.5258     Y=    -1.3850     Z=     2.3341  Tot=     2.7645
  
  gridpoints used for charge fit        20842
    out of a possible maximum of        22089
  
   Electrostatic potential fitting constrained to reproduce
     total charge:                yes
     dipole moment:               yes
     traceless quadrupole moment: no 
     traceless octapole moment:   no 
  
  Atomic charges from electrostatic potential: 
   
 Atom       C1           C2           C3           H4           C5      
 Charge   -0.29800      0.12813     -0.27178      0.15426      0.16313
   
 Atom       C6           C7           C8           C9           C10     
 Charge   -0.05798     -0.38060      0.60135     -0.28461     -0.13146
   
 Atom       O11          C12          H13          C14          C15     
 Charge   -0.63263     -0.11169      0.08953      0.08706     -0.23864
   
 Atom       C16          C17          C18          C19          C20     
 Charge    0.15349     -0.06804     -0.36311      0.57440     -0.26169
   
 Atom       C21          O22          H23          H24          H25     
 Charge   -0.15528     -0.62733      0.09790      0.08075      0.08807
   
 Atom       H26          H27          H28          H29          H30     
 Charge   -0.00924      0.03416      0.15945      0.18317      0.20898
   
 Atom       H31          H32          H33          H34          H35     
 Charge    0.15199      0.50012      0.02047      0.02531      0.07494
   
 Atom       H36          H37          H38          H39          H40     
 Charge    0.09238      0.05783      0.13529      0.18694      0.20089
   
 Atom       H41          H42     
 Charge    0.14579      0.49630
  
  sum of atomic charges:     1.000000
   
 RMS Error   6.43E-04 hartrees
 
  
  Moments from electrostatic potential charges:
  Dipole Moments  (Debye)
     X=     0.5258     Y=    -1.3850     Z=     2.3341  Tot=     2.7645
  
  Peak memory usage:   3821 Mb
  
  end of program ch
   
 Time(ch)  user:        7.5  user+sys:        7.5  wallclock:        3.9

 Total cpu seconds     user:    5440.272   user+sys:    5440.272
  
 Total elapsed time:    571 seconds

Job Hexestrol_2 completed on n077 at Sun Jan  8 22:34:31 2017
