Job Hexestrol_1 started on n076 at Sun Jan  8 22:24:51 2017
jobid: u01-0-5873027a

  +--------------------------------------------------------------------+
  |  Jaguar version 9.3, release  15                                   |
  |                                                                    |
  |  Copyright Schrodinger, Inc.                                       |
  |  All Rights Reserved.                                              |
  |                                                                    |
  |  The following have contributed to Jaguar (listed alphabetically): |
  |  Mike Beachy, Art Bochevarov, Dale Braden, Yixiang Cao,            |
  |  Chris Cortis, Rich Friesner, Bill Goddard, Hod Greeley,           |
  |  Tom Hughes, Leif Jacobson, Jean-Marc Langlois,                    |
  |  Daniel Mainz, Rob Murphy, Dean Philipp,                           |
  |  Tom Pollard, Murco Ringnalda, Mark Watson.                        |
  |                                                                    |
  |  Use of this program should be acknowledged in publications as:    |
  |                                                                    |
  |  Jaguar, version 9.3, Schrodinger, Inc., New York, NY, 2016.       |
  |                                                                    |
  |  A. D. Bochevarov, E. Harder, T. F. Hughes, J. R. Greenwood,       |
  |  D. A. Braden, D. M. Philipp, D. Rinaldo, M. D. Halls,             |
  |  J. Zhang, R. A. Friesner, "Jaguar: A High-Performance Quantum     |
  |  Chemistry Software Program with Strengths in Life and Materials   |
  |  Sciences", Int. J. Quantum Chem., 2013, 113(18), 2110-2142.       |
  +--------------------------------------------------------------------+
  
  start of program pre
  
  Job name: Hexestrol_1
  Executables used: /home/applications/Schrodinger_Suites_2016-3/jaguar-v9.3/bin/Linux-x86_64
  Temporary files : /scratch/Schrodinger_Suites/pbeni001/Hexestrol_1#u01-0-5873027a
  Maestro file (input):  Hexestrol_1.mae
  Maestro file (output): Hexestrol_1.01.mae
  
  basis set:             6-31g                           
  net molecular charge:    1
  multiplicity:            2
  
  Using up to  16 threads per process
  
  number of basis functions....          224
  
 Input geometry:
                                   angstroms
  atom               x                 y                 z
  C1            0.6863509000      0.0751332000      0.1166150000 
  C2            2.2033767000     -0.0880786000      0.0990747000 
  C3            2.8199499000     -1.0829799000      1.1189108000 
  C4            2.2416589000     -2.4893667000      0.8179665000 
  C5            2.3798835000     -3.5339474000      1.7219362000 
  C6            2.3188262000     -4.8599987000      1.2692678000 
  C7            1.6698076000     -5.1339387000      0.0736736000 
  C8            1.1423558000     -4.1076113000     -0.6550879000 
  C9            1.5618149000     -2.8119868000     -0.3754741000 
  O10           1.5712635000     -6.3965381000     -0.4189227000 
  C11           4.4609964000     -0.9633849000      1.1578546000 
  C12           4.9978799000      0.4907268000      1.4058429000 
  C13           4.7613418000      1.5780211000      0.3663382000 
  C14           5.1631844000     -1.9151205000      2.1819854000 
  C15           5.8459405000     -1.5150286000      3.3485684000 
  C16           6.3376492000     -2.4601834000      4.2694077000 
  C17           5.9833628000     -3.7889810000      4.1335754000 
  C18           5.3059688000     -4.1973915000      3.0067512000 
  C19           5.1096791000     -3.2908131000      1.9621041000 
  O20           6.2980569000     -4.7451199000      5.0464747000 
  H21           0.4034089000      0.7898944000     -0.6632134000 
  H22           0.3809041000      0.4745582000      1.0856398000 
  H23           0.1062401000     -0.8300662000     -0.0557838000 
  H24           2.4964487000      0.9108971000      0.3501314000 
  H25           2.5882746000     -0.2874446000     -0.9122971000 
  H26           2.4683133000     -0.7869863000      2.1172213000 
  H27           2.7565821000     -3.3380563000      2.7271361000 
  H28           2.8259898000     -5.6399498000      1.8193509000 
  H29           0.4889409000     -4.2959594000     -1.5041285000 
  H30           1.3272675000     -2.0746763000     -1.1293767000 
  H31           2.1723877000     -6.9674485000      0.0818445000 
  H32           4.8304405000     -1.2743768000      0.1691348000 
  H33           6.0929408000      0.4324949000      1.4876528000 
  H34           4.6261992000      0.8535650000      2.3721560000 
  H35           4.8893645000      1.2002593000     -0.6508403000 
  H36           5.4491739000      2.4122600000      0.5282904000 
  H37           3.7928718000      2.0633392000      0.4713027000 
  H38           6.0276921000     -0.4688143000      3.5730142000 
  H39           6.9461795000     -2.1305879000      5.1062917000 
  H40           4.9052421000     -5.2037230000      2.9535723000 
  H41           4.7286236000     -3.6653839000      1.0149221000 
  H42           7.0437648000     -4.4217822000      5.5773380000 
   
  principal moments of inertia:
        amu*angstrom^2:     1412.15719     1754.67116     2963.50122
                g*cm^2: 2.34494189E-37 2.91369964E-37 4.92100894E-37
   
  rotational constants:
               cm^(-1):      0.01193750      0.00960729      0.00568842
                   GHz:      0.35787730      0.28801921      0.17053444
   
  Molecular weight:     270.16 amu
   
  Stoichiometry: C18H22O2
  Molecular Point Group: C1      
  Point Group used: C1
  
 
Number of optimization coordinates:   137
Number of independent coordinates:    137
Number of non-redundant coordinates:  120
Number of frozen coordinates:           0
Number of harmonic constraints:         0
 
Number of geometric degrees of freedom:   120
Maximum geometric degrees of freedom:     120
 " " " " " excluding dummy atoms:         120
 
  nuclear repulsion energy.......    1539.752367105 hartrees
 
 Non-default options chosen:
   SCF calculation type: UDFT(b3lyp)                 
   UDFT=Becke_3_Parameter/HF+Slater+Becke88+VWN+LYP (B3LYP)
   Geometry will be optimized in redundant internal coordinates
   Electrostatic potential fit to point charges on atomic centers
   Electrostatic potential fitting constrained to reproduce
     total charge:                yes
     dipole moment:               yes
     traceless quadrupole moment: no 
     traceless octapole moment:   no 
  
 Temporary integer options set:
     73=  2
  
  Peak memory usage:   3788 Mb
  
  end of program pre
   
 Time(pre)  user:        9.0  user+sys:        9.0  wallclock:        2.5
  
  start of program onee
  
  smallest eigenvalue of S:    6.738E-04
  number of canonical orbitals.....          224
  Peak memory usage:   3812 Mb
  
  end of program onee
   
 Time(onee)  user:        6.6  user+sys:        6.6  wallclock:        1.2
  
  start of program hfig
  
  initial wavefunction generated automatically from atomic wavefunctions
  
  -------------------
  Alpha orbital space
  -------------------
 
  Irreducible     Total no   No of occupied orbitals 
  representation  orbitals   Shell_1  Shell_2    ...
  No Symm          224         73
  ------------------------
  Orbital occupation/shell    1.000
 
  ------------------
  Beta orbital space
  ------------------
 
  Irreducible     Total no   No of occupied orbitals 
  representation  orbitals   Shell_1  Shell_2    ...
  No Symm          224         72
  ------------------------
  Orbital occupation/shell    1.000
 
  
  
    Unrestricted Spin Properties ...
    Sz*(Sz+1) ..............     0.750
    <S**2> of initial guess      0.750
  
  
  Peak memory usage:   3739 Mb
  
  end of program hfig
   
 Time(hfig)  user:        4.9  user+sys:        4.9  wallclock:        1.3
  
  start of program probe
  
  Peak memory usage:   3728 Mb
  
  end of program probe
   
 Time(probe)  user:        4.0  user+sys:        4.0  wallclock:        0.8
  
  start of program grid
  
   grid     grid set  grid #  grid sym
  ------    --------  ------  --------
  coarse        0        0        1
  medium        2        1        1
  fine          0        0        1
  ultrafine     4        2        1
  charge       -1        3        1
  gradient      4        2        1
  density       0        0        1
  DFT-fine    -11        4        1
  DFT-med.    -10        5        1
  DFT-grad    -12        6        1
  DFT-der2      0        0        1
  DFT-cphf      0        0        1
  LMP2-enrg     4        2        1
  LMP2-grad     2        1        1
  DFT-cphf2     0        0        1
  PBF-dens      0        0        1
  plotting      0        0        1
  Rel-grad    -17        0        1
  
  number of gridpoints: 
     atom        C1       C2       C3       C4       C5       C6       C7
  grid # 1       78       85       92       96       94       95       95
  grid # 2      261      291      321      361      331      332      348
  grid # 3        6        6        6       53      142      141      198
  grid # 4     4304     4304     4304     4304     4304     4304     4304
  grid # 5     1192     1192     1192     1192     1192     1192     1192
  grid # 6     5226     5226     5226     5226     5226     5226     5226
   
  number of gridpoints: 
     atom        C8       C9      O10      C11      C12      C13      C14
  grid # 1       96       93      114       92       86       78      100
  grid # 2      335      329      428      326      289      263      363
  grid # 3      207      109      839        6        6        6       80
  grid # 4     4304     4304     4304     4304     4304     4304     4304
  grid # 5     1192     1192     1192     1192     1192     1192     1192
  grid # 6     5226     5226     5226     5226     5226     5226     5226
   
  number of gridpoints: 
     atom       C15      C16      C17      C18      C19      O20      H21
  grid # 1       96       97       96       96       95      114      109
  grid # 2      334      336      350      329      329      427      438
  grid # 3      176      224      193      135      141      822     1095
  grid # 4     4304     4304     4304     4304     4304     4304     4304
  grid # 5     1192     1192     1192     1192     1192     1192     1192
  grid # 6     5226     5226     5226     5226     5226     5226     5226
   
  number of gridpoints: 
     atom       H22      H23      H24      H25      H26      H27      H28
  grid # 1      107      106      101      107      108      111      112
  grid # 2      434      423      394      420      426      427      426
  grid # 3      983      696      200      515      559      683      642
  grid # 4     4304     4304     4304     4304     4304     4304     4304
  grid # 5     1192     1192     1192     1192     1192     1192     1192
  grid # 6     5226     5226     5226     5226     5226     5226     5226
   
  number of gridpoints: 
     atom       H29      H30      H31      H32      H33      H34      H35
  grid # 1      118      105      112      107      108      107      109
  grid # 2      452      415      444      428      422      424      434
  grid # 3     1294      541     1241      574      666      613      850
  grid # 4     4304     4304     4304     4304     4304     4304     4304
  grid # 5     1192     1192     1192     1192     1192     1192     1192
  grid # 6     5226     5226     5226     5226     5226     5226     5226
   
  number of gridpoints: 
     atom       H36      H37      H38      H39      H40      H41      H42
  grid # 1      110      105      110      117      113      111      114
  grid # 2      438      413      425      442      434      426      444
  grid # 3     1095      653      745     1153      790      625     1277
  grid # 4     4304     4304     4304     4304     4304     4304     4304
  grid # 5     1192     1192     1192     1192     1192     1192     1192
  grid # 6     5226     5226     5226     5226     5226     5226     5226
   
  number of gridpoints: 
     atom     total
  grid # 1     4295
  grid # 2    16112
  grid # 3    20986
  grid # 4   180768
  grid # 5    50064
  grid # 6   219492
   
  Peak memory usage:   3771 Mb
  
  end of program grid
   
 Time(grid)  user:       29.3  user+sys:       29.3  wallclock:        3.0
  
  start of program rwr
  
  Peak memory usage:   3736 Mb
  
  end of program rwr
   
 Time(rwr)  user:       64.9  user+sys:       64.9  wallclock:        5.8
  
  start of program scf
  
 number of electrons..........        145
 number of alpha electrons....         73
 number of beta electrons.....         72
 number of alpha orbitals.....        224
 number of beta orbitals......        224
 number of alpha occupied orb..        73
 number of alpha virtual orb...       151
 number of beta occupied orb...        72
 number of beta virtual orb....       152
 SCF type: UDFT=Becke_3_Parameter/HF+Slater+Becke88+VWN+LYP (B3LYP)
 Energy computed with NOPS off.
  
       i  u  d  i  g                   
       t  p  i  c  r                                 RMS    maximum
       e  d  i  u  i                       energy  density   DIIS  
       r  t  s  t  d       total energy    change  change    error 
  
etot    1  N  N  5  M    -846.44290836784           9.0E-03  1.3E-01
etot    2  Y  Y  6  M    -848.18410622299  1.7E+00  8.3E-03  1.3E-01
etot    3  Y  Y  6  M    -848.01173282236 -1.7E-01  6.0E-03  1.9E-01
etot    4  N  Y  2  U    -848.92904616388  9.2E-01  4.8E-03  2.6E-02
etot    5  Y  Y  6  M    -848.90310461023 -2.6E-02  3.6E-03  2.6E-02
etot    6  N  Y  2  U    -849.01435935326  1.1E-01  3.1E-03  1.3E-02
etot    7  Y  Y  6  M    -848.99866102929 -1.6E-02  2.2E-03  3.0E-02
etot    8  N  Y  2  U    -849.04774802745  4.9E-02  5.1E-04  1.0E-02
etot    9  Y  Y  6  M    -849.04905699671  1.3E-03  1.1E-04  5.6E-03
etot   10  Y  Y  6  M    -849.04942920760  3.7E-04  5.1E-05  4.5E-03
etot   11  N  Y  2  U    -849.04957999901  1.5E-04  3.8E-05  3.4E-03
etot   12  N  Y  2  U    -849.04967701474  9.7E-05  5.5E-05  2.2E-03
etot   13  Y  Y  6  M    -849.04975567234  7.9E-05  8.9E-06  6.3E-04
etot   14  N  Y  2  U    -849.04975627982  6.1E-07  1.1E-05  3.7E-04
etot   15  N  Y  2  U    -849.04975868754  2.4E-06  3.7E-06  5.6E-05
etot   16  N  N  2  U    -849.04975881116  1.2E-07  0.0E+00  0.0E+00
  
  
 Energy components, in hartrees:
   (A)  Nuclear repulsion............    1539.75236710455
   (E)  Total one-electron terms.....   -4188.64207448049
   (I)  Total two-electron terms.....    1799.83994856478
   (L)  Electronic energy............   -2388.80212591571  (E+I)
   (N)  Total energy.................    -849.04975881116  (A+L)
   (O)  Gas phase energy.............    -849.04975881116
  
                                 Total             Coulomb       Exchange+Corr.
 Total two-electron terms    1799.83994856478    1922.74371863027    -122.90377006549
   Hamiltonian  1........     923.93780515358     967.73015717977     -43.79235202619
   Hamiltonian  2........     911.64601594917     955.01356145049     -43.36754550133
  
 SCFE: SCF energy: UDFT(b3lyp)      -849.04975881116 hartrees   iterations:  16
  
 
 Alpha HOMO energy:    -0.37059
 Alpha LUMO energy:    -0.16817
 
  Alpha Orbital energies (hartrees): 
   -19.33989   -19.32871   -10.41161   -10.40281   -10.35405   -10.34613
   -10.34444   -10.34278   -10.34122   -10.34064   -10.33755   -10.33603
   -10.33487   -10.33122   -10.33083   -10.33020   -10.29810   -10.28912
   -10.27068   -10.26918    -1.23983    -1.22904    -1.02614    -1.01350
    -0.95301    -0.91931    -0.91049    -0.89702    -0.88819    -0.87313
    -0.83226    -0.79407    -0.77744    -0.77359    -0.75038    -0.74168
    -0.70688    -0.70492    -0.69672    -0.69251    -0.63284    -0.62981
    -0.62571    -0.60659    -0.60363    -0.59202    -0.58666    -0.57557
    -0.57312    -0.56955    -0.56122    -0.55348    -0.54306    -0.53321
    -0.53058    -0.52489    -0.52223    -0.50713    -0.50169    -0.49462
    -0.48560    -0.48098    -0.47025    -0.46764    -0.45949    -0.44914
    -0.44759    -0.44023    -0.41867    -0.40567    -0.38709    -0.37622
    -0.37059    -0.16817    -0.14976    -0.14425    -0.13739    -0.07338
    -0.06137    -0.04501    -0.02249    -0.02195    -0.02078
 
 
 Beta HOMO energy:    -0.35027
 Beta LUMO energy:    -0.32508
 
  Beta Orbital energies (hartrees): 
   -19.33636   -19.32583   -10.40974   -10.40128   -10.35147   -10.34455
   -10.34346   -10.34216   -10.34118   -10.34025   -10.33692   -10.33483
   -10.33464   -10.33157   -10.33087   -10.32960   -10.29804   -10.28905
   -10.27063   -10.26917    -1.23242    -1.22297    -1.02169    -1.00979
    -0.94964    -0.91456    -0.90881    -0.89531    -0.88443    -0.87110
    -0.83042    -0.79223    -0.77540    -0.77137    -0.74765    -0.73972
    -0.70527    -0.70382    -0.69537    -0.69102    -0.63097    -0.62795
    -0.62380    -0.60499    -0.60214    -0.58967    -0.58117    -0.57314
    -0.56848    -0.56196    -0.55322    -0.54922    -0.54109    -0.53179
    -0.52907    -0.52231    -0.51877    -0.50257    -0.50013    -0.48902
    -0.48323    -0.47870    -0.46623    -0.46170    -0.45161    -0.44695
    -0.44574    -0.43869    -0.41729    -0.40209    -0.37901    -0.35027
    -0.32508    -0.16125    -0.14220    -0.13232    -0.12507    -0.07181
    -0.06014    -0.04352    -0.02200    -0.02098
 
  
  
    Unrestricted Spin Properties ...
    Sz*(Sz+1)      0.750
    <S**2> ...     0.755
  
  
  Peak memory usage:   5787 Mb
  
  end of program scf
   
 Time(scf)  user:      294.0  user+sys:      294.0  wallclock:       22.1
  
  start of program der1a
  
  Peak memory usage:   3824 Mb
  
  end of program der1a
   
 Time(der1a)  user:        5.6  user+sys:        5.6  wallclock:        1.0
  
  start of program rwr
  
  Peak memory usage:   3737 Mb
  
  end of program rwr
   
 Time(rwr)  user:       41.4  user+sys:       41.4  wallclock:        5.3
  
  start of program der1b
  
   
  forces (hartrees/bohr) : total     
   
 atom  label           x              y              z
 ---- --------   -------------  -------------  -------------
    1 C1         -9.358164E-03  -4.613029E-03  -2.590573E-04
    2 C2          3.242691E-03   2.665543E-03  -1.153713E-03
    3 C3         -1.518970E-02  -8.359641E-03  -8.367750E-03
    4 C4          3.777915E-03   2.866596E-02   8.333252E-04
    5 C5          1.870904E-02  -2.766130E-02   2.009306E-02
    6 C6          3.749343E-03   1.521420E-02   2.664968E-02
    7 C7          4.161186E-03  -2.534594E-02   4.577401E-03
    8 C8         -1.423730E-02   3.562246E-02  -3.133595E-02
    9 C9         -1.011109E-02  -4.677194E-03  -1.892684E-02
   10 O10        -1.193660E-03   4.231129E-03  -2.144185E-03
   11 C11         1.957328E-02  -2.606249E-03   1.030366E-02
   12 C12        -1.060782E-03  -4.994522E-05   4.784877E-03
   13 C13        -3.133976E-03   1.159172E-02  -2.337958E-03
   14 C14        -7.495612E-03   1.434184E-02  -1.899884E-02
   15 C15         9.146995E-03   1.936855E-03   2.014939E-02
   16 C16         1.035873E-03   3.268147E-02  -2.730067E-03
   17 C17         3.767814E-03  -4.103628E-03   9.065643E-03
   18 C18        -1.213413E-02  -8.019161E-03  -3.504626E-02
   19 C19        -1.429120E-02  -2.236395E-02  -1.916515E-03
   20 O20         3.780798E-03  -1.730994E-03  -4.130032E-04
   21 H21        -1.431084E-03   1.765722E-03   1.870655E-03
   22 H22        -3.439894E-03   2.267520E-03   1.513855E-03
   23 H23        -1.484224E-03  -2.073354E-03   6.077832E-04
   24 H24         1.332871E-02   6.057388E-03   7.075724E-04
   25 H25        -1.130628E-03  -5.110759E-04   1.940374E-03
   26 H26         3.250026E-03  -2.213879E-03   2.914342E-03
   27 H27        -3.117748E-03  -1.924004E-03  -7.032597E-03
   28 H28        -6.704330E-03  -4.624515E-03   6.860209E-03
   29 H29         6.295289E-03  -2.166006E-03   1.909727E-04
   30 H30         1.383945E-03   2.419846E-03   3.465660E-03
   31 H31         1.183767E-03  -1.758173E-02   2.574302E-03
   32 H32        -5.677406E-03  -1.585815E-03  -1.653455E-03
   33 H33        -2.478755E-03  -7.046595E-03   3.453441E-03
   34 H34         4.544011E-04  -1.176397E-03   2.217944E-03
   35 H35        -8.142500E-04   2.831507E-03  -2.246745E-03
   36 H36         8.259415E-03  -3.171207E-03  -1.553265E-03
   37 H37        -3.331387E-03  -1.998343E-03  -4.637443E-03
   38 H38        -1.115121E-03  -1.668504E-03  -2.340117E-03
   39 H39        -2.060185E-03   1.124422E-03   7.403177E-04
   40 H40         9.879705E-03  -2.980605E-03  -2.872009E-03
   41 H41         1.698336E-03   1.804811E-03   4.882048E-03
   42 H42         4.301670E-03  -4.671023E-03   1.557343E-02
 -------------   -------------  -------------  -------------
     total       -1.042557E-05   2.982896E-04   4.167112E-06
   
  Peak memory usage:   5738 Mb
  
  end of program der1b
   
 Time(der1b)  user:       58.6  user+sys:       58.6  wallclock:        4.9
  
  start of program geopt
  
 ----------------------------------------------------------------------------
  Geometry optimization step  1
  Total energy:      -849.04975881116 hartrees
 ----------------------------------------------------------------------------
  
  
  Level shifts adjusted to satisfy step-size constraints
   Step size:    0.3001288
   Cos(theta):   0.9412344
   Final level shift:  -2.9998726E-01
  
  gradient maximum:        4.8789E-02 .  (  4.5000E-04 )
  gradient rms:            1.2848E-02 .  (  3.0000E-04 )
  displacement maximum:    1.1747E-01 .  (  1.8000E-03 )
  displacement rms:        2.5621E-02 .  (  1.2000E-03 )
  
  predicted energy change:  -3.4723E-02
  step size:     0.29989
  trust radius:  0.30000
  
  molecular structure not yet converged...
  
  center of mass moved by:
     x:     1.5054E-03     y:    -5.3800E-03     z:    -1.1015E-02
  
  new geometry: 
                                   angstroms
  atom               x                 y                 z
  C1            0.6583344959      0.1198245234      0.1222746817 
  C2            2.1880698445     -0.0606751607      0.0909380643 
  C3            2.7692372081     -1.0872089264      1.1001534247 
  C4            2.1879250286     -2.4900265917      0.8027708346 
  C5            2.2300166991     -3.5245355479      1.7653789199 
  C6            2.1468315919     -4.8639799097      1.3830420561 
  C7            1.6004630345     -5.1738665515      0.1240525105 
  C8            1.1835792019     -4.1402282700     -0.7245424400 
  C9            1.6036094510     -2.8408099765     -0.4503892940 
  O10           1.4541964648     -6.4602335305     -0.3172294279 
  C11           4.4104381768     -0.9532198608      1.2089399194 
  C12           4.9671867894      0.4932418310      1.4584234576 
  C13           4.8422098321      1.5831635337      0.3833693568 
  C14           5.1262856157     -1.8931105680      2.2074627207 
  C15           5.7195477044     -1.4897378051      3.4344568821 
  C16           6.2891141915     -2.4206269718      4.3129173777 
  C17           6.1342668700     -3.7914782519      4.0596464912 
  C18           5.5445943135     -4.1955719194      2.8518220677 
  C19           5.2465740608     -3.2520642110      1.8794428676 
  O20           6.5213343953     -4.7730918878      4.9350306017 
  H21           0.3719385315      0.8517868060     -0.6403655879 
  H22           0.3533229284      0.5096624019      1.0982454227 
  H23           0.0666814257     -0.7784433568     -0.0596765743 
  H24           2.5436956006      0.9242572145      0.3489982329 
  H25           2.5597466267     -0.2632492753     -0.9228279363 
  H26           2.4185016833     -0.8076062349      2.1044233816 
  H27           2.5269839786     -3.3019047765      2.7845867239 
  H28           2.5478839380     -5.6383101901      2.0265994279 
  H29           0.6283417003     -4.3575246084     -1.6308796336 
  H30           1.4613624217     -2.1140140018     -1.2357062162 
  H31           1.9289659378     -7.0867120311      0.2621360460 
  H32           4.7904701358     -1.2445917964      0.2182322794 
  H33           6.0502706141      0.3805959393      1.6002227161 
  H34           4.5571506495      0.8789699666      2.4014232135 
  H35           5.0155419359      1.1931163142     -0.6232986286 
  H36           5.5791612038      2.3706873477      0.5747742812 
  H37           3.8881345740      2.1091370259      0.4056944641 
  H38           5.7852218263     -0.4441146482      3.7106080393 
  H39           6.8099157706     -2.0714134744      5.1993062938 
  H40           5.3272019782     -5.2451389700      2.6907047748 
  H41           4.9721503710     -3.5883535712      0.8871621245 
  H42           7.1666814727     -4.4276040845      5.5827036859 
   
  nuclear repulsion energy.......    1524.033537337 hartrees
  -------------------------------------------------
 /  end of geometry optimization iteration   1   /
 -------------------------------------------------
   
  Peak memory usage:   4726 Mb
  
  end of program geopt
   
 Time(geopt)  user:       13.0  user+sys:       13.0  wallclock:        1.4
  
  start of program onee
  
  smallest eigenvalue of S:    7.035E-04
  number of canonical orbitals.....          224
  Peak memory usage:   3812 Mb
  
  end of program onee
   
 Time(onee)  user:        4.4  user+sys:        4.4  wallclock:        0.8
  
  start of program probe
  
  Peak memory usage:   3726 Mb
  
  end of program probe
   
 Time(probe)  user:        2.4  user+sys:        2.4  wallclock:        0.7
  
  start of program grid
  
   grid     grid set  grid #  grid sym
  ------    --------  ------  --------
  coarse        0        0        1
  medium        2        1        1
  fine          0        0        1
  ultrafine     4        2        1
  charge       -1        3        1
  gradient      4        2        1
  density       0        0        1
  DFT-fine    -11        4        1
  DFT-med.    -10        5        1
  DFT-grad    -12        6        1
  DFT-der2      0        0        1
  DFT-cphf      0        0        1
  LMP2-enrg     4        2        1
  LMP2-grad     2        1        1
  DFT-cphf2     0        0        1
  PBF-dens      0        0        1
  plotting      0        0        1
  Rel-grad    -17        0        1
  
  number of gridpoints: 
     atom        C1       C2       C3       C4       C5       C6       C7
  grid # 1       78       85       91      100       95       96       98
  grid # 2      269      291      323      361      335      329      354
  grid # 3        6        6        6       47      134      150      203
  grid # 4     4304     4304     4304     4304     4304     4304     4304
  grid # 5     1192     1192     1192     1192     1192     1192     1192
  grid # 6     5226     5226     5226     5226     5226     5226     5226
   
  number of gridpoints: 
     atom        C8       C9      O10      C11      C12      C13      C14
  grid # 1       97       95      114       92       86       79      100
  grid # 2      334      333      427      328      290      265      358
  grid # 3      202      104      827        6        6        6       60
  grid # 4     4304     4304     4304     4304     4304     4304     4304
  grid # 5     1192     1192     1192     1192     1192     1192     1192
  grid # 6     5226     5226     5226     5226     5226     5226     5226
   
  number of gridpoints: 
     atom       C15      C16      C17      C18      C19      O20      H21
  grid # 1       95       97       98       96       96      114      109
  grid # 2      332      334      355      333      334      427      439
  grid # 3      154      221      199      140      133      813     1107
  grid # 4     4304     4304     4304     4304     4304     4304     4304
  grid # 5     1192     1192     1192     1192     1192     1192     1192
  grid # 6     5226     5226     5226     5226     5226     5226     5226
   
  number of gridpoints: 
     atom       H22      H23      H24      H25      H26      H27      H28
  grid # 1      107      107      100      106      107      114      114
  grid # 2      436      426      396      420      426      434      432
  grid # 3      995      728      212      511      518      773      794
  grid # 4     4304     4304     4304     4304     4304     4304     4304
  grid # 5     1192     1192     1192     1192     1192     1192     1192
  grid # 6     5226     5226     5226     5226     5226     5226     5226
   
  number of gridpoints: 
     atom       H29      H30      H31      H32      H33      H34      H35
  grid # 1      118      109      113      107      108      107      109
  grid # 2      451      421      449      422      421      425      433
  grid # 3     1296      592     1277      515      651      607      874
  grid # 4     4304     4304     4304     4304     4304     4304     4304
  grid # 5     1192     1192     1192     1192     1192     1192     1192
  grid # 6     5226     5226     5226     5226     5226     5226     5226
   
  number of gridpoints: 
     atom       H36      H37      H38      H39      H40      H41      H42
  grid # 1      109      105      111      118      115      112      114
  grid # 2      438      417      425      443      442      433      449
  grid # 3     1099      691      746     1160      929      740     1319
  grid # 4     4304     4304     4304     4304     4304     4304     4304
  grid # 5     1192     1192     1192     1192     1192     1192     1192
  grid # 6     5226     5226     5226     5226     5226     5226     5226
   
  number of gridpoints: 
     atom     total
  grid # 1     4321
  grid # 2    16190
  grid # 3    21557
  grid # 4   180768
  grid # 5    50064
  grid # 6   219492
   
  Peak memory usage:   3772 Mb
  
  end of program grid
   
 Time(grid)  user:       31.6  user+sys:       31.6  wallclock:        3.4
  
  start of program rwr
  
  Peak memory usage:   3737 Mb
  
  end of program rwr
   
 Time(rwr)  user:       54.8  user+sys:       54.8  wallclock:        5.1
  
  start of program scf
  
 Energy computed with NOPS off.
  
       i  u  d  i  g                   
       t  p  i  c  r                                 RMS    maximum
       e  d  i  u  i                       energy  density   DIIS  
       r  t  s  t  d       total energy    change  change    error 
  
etot    1  N  N  2  U    -849.00308873913           1.7E-03  2.4E-02
etot    2  Y  Y  6  M    -849.07599332788  7.3E-02  7.0E-04  5.6E-03
etot    3  N  Y  2  U    -849.07038039191 -5.6E-03  7.0E-04  1.2E-02
etot    4  N  Y  2  U    -849.07652218659  6.1E-03  3.9E-04  1.0E-02
etot    5  Y  Y  6  M    -849.07790009431  1.4E-03  1.3E-04  4.0E-03
etot    6  Y  Y  6  M    -849.07810194947  2.0E-04  3.0E-05  5.7E-04
etot    7  N  Y  2  U    -849.07816593074  6.4E-05  1.0E-05  1.5E-04
etot    8  N  Y  2  U    -849.07816775850  1.8E-06  6.5E-06  6.8E-05
etot    9  N  Y  2  U    -849.07816816610  4.1E-07  3.4E-06  4.5E-05
etot   10  N  N  2  U    -849.07816836166  2.0E-07  0.0E+00  0.0E+00
  
  
 Energy components, in hartrees:
   (A)  Nuclear repulsion............    1524.03353733660
   (E)  Total one-electron terms.....   -4157.68794471130
   (I)  Total two-electron terms.....    1784.57623901304
   (L)  Electronic energy............   -2373.11170569826  (E+I)
   (N)  Total energy.................    -849.07816836166  (A+L)
   (O)  Gas phase energy.............    -849.07816836166
  
                                 Total             Coulomb       Exchange+Corr.
 Total two-electron terms    1784.57623901304    1907.35252216035    -122.77628314731
   Hamiltonian  1........     916.24850989276     959.99188220902     -43.74337231627
   Hamiltonian  2........     904.03720068830     947.36063995133     -43.32343926304
  
 SCFE: SCF energy: UDFT(b3lyp)      -849.07816836166 hartrees   iterations:  10
  
 
 Alpha HOMO energy:    -0.36610
 Alpha LUMO energy:    -0.16154
 
  Alpha Orbital energies (hartrees): 
   -19.33766   -19.32725   -10.41561   -10.40642   -10.35653   -10.34594
   -10.34464   -10.34150   -10.34019   -10.33981   -10.33544   -10.33534
   -10.33395   -10.33345   -10.33224   -10.32982   -10.29828   -10.29153
   -10.27103   -10.27034    -1.22974    -1.21840    -1.01547    -1.00699
    -0.94874    -0.91432    -0.90463    -0.89623    -0.88180    -0.86816
    -0.82794    -0.79114    -0.77246    -0.76700    -0.74855    -0.74109
    -0.70693    -0.69983    -0.69495    -0.69014    -0.62880    -0.62423
    -0.62325    -0.60307    -0.59845    -0.58671    -0.57936    -0.57356
    -0.56877    -0.56660    -0.55701    -0.55061    -0.54078    -0.53201
    -0.52594    -0.52022    -0.51771    -0.50390    -0.50016    -0.49009
    -0.48197    -0.48018    -0.46917    -0.46591    -0.45838    -0.44699
    -0.44549    -0.43770    -0.42366    -0.40402    -0.38821    -0.37302
    -0.36610    -0.16154    -0.15033    -0.14522    -0.14119    -0.07287
    -0.06260    -0.03916    -0.02518    -0.02275    -0.02059
 
 
 Beta HOMO energy:    -0.34564
 Beta LUMO energy:    -0.31972
 
  Beta Orbital energies (hartrees): 
   -19.33430   -19.32449   -10.41365   -10.40477   -10.35397   -10.34425
   -10.34382   -10.34140   -10.33974   -10.33915   -10.33544   -10.33485
   -10.33288   -10.33284   -10.33215   -10.33006   -10.29819   -10.29143
   -10.27097   -10.27032    -1.22260    -1.21249    -1.01121    -1.00331
    -0.94551    -0.90993    -0.90291    -0.89485    -0.87780    -0.86588
    -0.82597    -0.78934    -0.77030    -0.76484    -0.74581    -0.73922
    -0.70570    -0.69828    -0.69362    -0.68862    -0.62713    -0.62226
    -0.62139    -0.60143    -0.59697    -0.58477    -0.57566    -0.57126
    -0.56736    -0.55634    -0.54804    -0.54543    -0.53849    -0.53038
    -0.52425    -0.51792    -0.51472    -0.50157    -0.49615    -0.48490
    -0.47903    -0.47790    -0.46677    -0.45947    -0.45084    -0.44559
    -0.44304    -0.43510    -0.42199    -0.40069    -0.38368    -0.34564
    -0.31972    -0.15424    -0.13992    -0.13678    -0.12775    -0.07139
    -0.06142    -0.03756    -0.02314    -0.02143
 
  
  
    Unrestricted Spin Properties ...
    Sz*(Sz+1)      0.750
    <S**2> ...     0.754
  
  
  Peak memory usage:   5787 Mb
  
  end of program scf
   
 Time(scf)  user:      204.2  user+sys:      204.2  wallclock:       15.4
  
  start of program der1a
  
  Peak memory usage:   3824 Mb
  
  end of program der1a
   
 Time(der1a)  user:        7.1  user+sys:        7.1  wallclock:        1.0
  
  start of program rwr
  
  Peak memory usage:   3735 Mb
  
  end of program rwr
   
 Time(rwr)  user:       41.7  user+sys:       41.7  wallclock:        5.1
  
  start of program der1b
  
   
  forces (hartrees/bohr) : total     
   
 atom  label           x              y              z
 ---- --------   -------------  -------------  -------------
    1 C1         -2.636982E-03  -1.884687E-03  -1.192014E-04
    2 C2         -1.689977E-03   2.662447E-03   1.978131E-03
    3 C3         -1.290650E-02  -6.519960E-03   2.571728E-03
    4 C4          4.119874E-03   1.143606E-02  -1.248845E-03
    5 C5          1.925216E-02  -1.017519E-02   6.271738E-03
    6 C6         -2.687700E-03   1.014857E-02   6.871267E-03
    7 C7         -2.604060E-03  -9.471232E-03  -1.732279E-04
    8 C8          3.509530E-03   1.328214E-02  -1.037571E-02
    9 C9         -2.643377E-03  -6.349090E-03  -4.085494E-03
   10 O10         2.474701E-03   7.945030E-03   1.038368E-03
   11 C11         2.066504E-02  -1.688991E-03  -2.079989E-03
   12 C12        -4.501513E-03   4.660904E-03   2.306948E-03
   13 C13        -1.832431E-03   5.816787E-03  -5.070296E-04
   14 C14        -4.698190E-03   9.501504E-03  -1.139459E-02
   15 C15         3.396099E-03  -1.743092E-03   8.564615E-03
   16 C16        -3.240792E-03   1.232458E-02  -2.216306E-03
   17 C17        -2.129470E-03   1.150267E-04   3.201109E-03
   18 C18         2.505261E-03  -8.437666E-03  -1.015345E-02
   19 C19        -1.407268E-02  -1.199815E-02   2.270106E-03
   20 O20         2.544837E-03   4.909525E-03  -6.417374E-03
   21 H21        -5.531683E-04   1.181520E-03   1.162719E-03
   22 H22        -1.276726E-03   1.229715E-03   7.713372E-04
   23 H23         1.127789E-03  -3.187559E-03  -5.010672E-04
   24 H24         7.547718E-03   2.564122E-03   4.961564E-04
   25 H25        -1.232885E-03  -1.061317E-03   7.334949E-04
   26 H26         1.351463E-04  -7.748143E-04   1.667362E-03
   27 H27         2.368920E-03   7.930762E-04  -1.483770E-03
   28 H28        -7.504440E-03  -2.176448E-03   4.276913E-03
   29 H29         4.253717E-03  -2.731476E-03   9.567233E-06
   30 H30        -3.344436E-04   3.565150E-03   2.126758E-03
   31 H31        -2.891951E-03  -7.368102E-03   9.653558E-04
   32 H32        -4.241108E-03  -2.986885E-03  -1.918242E-03
   33 H33        -2.465199E-03  -3.998383E-03   3.323137E-03
   34 H34         7.275137E-04   3.765844E-04   7.667546E-04
   35 H35        -2.864121E-04   4.188568E-04  -1.474750E-03
   36 H36         4.140754E-03  -2.808551E-03  -4.270914E-04
   37 H37        -2.068047E-03  -1.174937E-03  -2.691413E-03
   38 H38        -2.372229E-03  -7.418799E-04  -1.090389E-03
   39 H39        -1.536665E-03  -4.575976E-04   7.690282E-04
   40 H40         8.828909E-03  -1.501648E-03  -1.822014E-03
   41 H41        -4.568553E-03  -6.867524E-04   9.544697E-04
   42 H42        -1.106463E-03  -3.012838E-03   7.073575E-03
 -------------   -------------  -------------  -------------
     total       -4.839883E-04  -5.641210E-06  -9.328162E-06
   
  Peak memory usage:   5735 Mb
  
  end of program der1b
   
 Time(der1b)  user:       48.8  user+sys:       48.8  wallclock:        4.3
  
  start of program geopt
  
 ----------------------------------------------------------------------------
  Geometry optimization step  2
  Total energy:      -849.07816836166 hartrees
 ----------------------------------------------------------------------------
  
  
  Level shifts adjusted to satisfy step-size constraints
   Step size:    0.3000270
   Cos(theta):   0.9307560
   Final level shift:  -1.5655197E-01
  
  energy change:          -2.8410E-02 .  (  5.0000E-05 )
  gradient maximum:        2.2310E-02 .  (  4.5000E-04 )
  gradient rms:            6.9641E-03 .  (  3.0000E-04 )
  displacement maximum:    8.0065E-02 .  (  1.8000E-03 )
  displacement rms:        2.5630E-02 .  (  1.2000E-03 )
  
  predicted energy change:  -1.8427E-02
  step size:     0.29999
  trust radius:  0.30000
  
  molecular structure not yet converged...
  
  center of mass moved by:
     x:     6.5319E-03     y:     4.4234E-03     z:    -6.6934E-03
  
  new geometry: 
                                   angstroms
  atom               x                 y                 z
  C1            0.6077508562      0.0986763015      0.2014532339 
  C2            2.1485082403     -0.0088468181      0.1284762976 
  C3            2.7610941143     -1.0371573954      1.1106580563 
  C4            2.2445019852     -2.4428409933      0.8353860634 
  C5            2.3027187696     -3.4561505146      1.8379696737 
  C6            2.2216178426     -4.8012277631      1.5105146410 
  C7            1.7359643211     -5.1563152054      0.2249593212 
  C8            1.3578961387     -4.1471822580     -0.6978200184 
  C9            1.7174365397     -2.8321412486     -0.4356984528 
  O10           1.5613704738     -6.4520509651     -0.1766556472 
  C11           4.3889151442     -0.9208161588      1.1997150870 
  C12           4.9753203071      0.5189885143      1.4289684559 
  C13           4.9009239340      1.5883524788      0.3162304035 
  C14           5.0391304970     -1.9020037986      2.1667243450 
  C15           5.5697634811     -1.5352288733      3.4369082895 
  C16           6.1209415821     -2.4807284400      4.2931307330 
  C17           6.0534119872     -3.8517017383      3.9539968304 
  C18           5.5221166188     -4.2347148494      2.6967878695 
  C19           5.1818874355     -3.2585393392      1.7753787137 
  O20           6.4227377291     -4.8636537293      4.8038309373 
  H21           0.2623703910      0.8384738397     -0.5287755316 
  H22           0.2997096225      0.4453595474      1.1950910425 
  H23           0.0695584852     -0.8325974294      0.0025439284 
  H24           2.5230706452      0.9777833430      0.3835285370 
  H25           2.4937159844     -0.1998779357     -0.8953524460 
  H26           2.4277927825     -0.7872443389      2.1305320975 
  H27           2.5885724634     -3.1908355764      2.8484549417 
  H28           2.5660889741     -5.5577185497      2.2091562845 
  H29           0.8774127857     -4.4221287275     -1.6279582674 
  H30           1.5829262558     -2.1055336304     -1.2239668546 
  H31           1.9387417448     -7.1086399646      0.4479798381 
  H32           4.7251381866     -1.2291089187      0.1968018455 
  H33           6.0470349874      0.3574849145      1.5909659670 
  H34           4.5656184853      0.9379894448      2.3587640823 
  H35           5.0737198414      1.1663792256     -0.6793627828 
  H36           5.6854890507      2.3335892341      0.4938782792 
  H37           3.9611902116      2.1428457328      0.2940430976 
  H38           5.5997159613     -0.4985255068      3.7444920068 
  H39           6.5772492421     -2.1594112035      5.2240770370 
  H40           5.4253486798     -5.2893379407      2.4667184122 
  H41           4.9267497898     -3.5516576648      0.7643489346 
  H42           6.9767443985     -4.5553227095      5.5529146971 
   
  nuclear repulsion energy.......    1535.680016643 hartrees
  -------------------------------------------------
 /  end of geometry optimization iteration   2   /
 -------------------------------------------------
   
  Peak memory usage:   4727 Mb
  
  end of program geopt
   
 Time(geopt)  user:       10.6  user+sys:       10.6  wallclock:        0.8
  
  start of program onee
  
  smallest eigenvalue of S:    6.720E-04
  number of canonical orbitals.....          224
  Peak memory usage:   3812 Mb
  
  end of program onee
   
 Time(onee)  user:        3.7  user+sys:        3.7  wallclock:        0.6
  
  start of program probe
  
  Peak memory usage:   3727 Mb
  
  end of program probe
   
 Time(probe)  user:        3.2  user+sys:        3.2  wallclock:        0.7
  
  start of program grid
  
   grid     grid set  grid #  grid sym
  ------    --------  ------  --------
  coarse        0        0        1
  medium        2        1        1
  fine          0        0        1
  ultrafine     4        2        1
  charge       -1        3        1
  gradient      4        2        1
  density       0        0        1
  DFT-fine    -11        4        1
  DFT-med.    -10        5        1
  DFT-grad    -12        6        1
  DFT-der2      0        0        1
  DFT-cphf      0        0        1
  LMP2-enrg     4        2        1
  LMP2-grad     2        1        1
  DFT-cphf2     0        0        1
  PBF-dens      0        0        1
  plotting      0        0        1
  Rel-grad    -17        0        1
  
  number of gridpoints: 
     atom        C1       C2       C3       C4       C5       C6       C7
  grid # 1       79       85       91      100       95       96       96
  grid # 2      267      293      321      359      335      334      359
  grid # 3        6        6        6       38      132      139      190
  grid # 4     4304     4304     4304     4304     4304     4304     4304
  grid # 5     1192     1192     1192     1192     1192     1192     1192
  grid # 6     5226     5226     5226     5226     5226     5226     5226
   
  number of gridpoints: 
     atom        C8       C9      O10      C11      C12      C13      C14
  grid # 1       97       95      114       93       86       78      100
  grid # 2      336      335      430      322      290      266      356
  grid # 3      193       92      798        6        6        6       49
  grid # 4     4304     4304     4304     4304     4304     4304     4304
  grid # 5     1192     1192     1192     1192     1192     1192     1192
  grid # 6     5226     5226     5226     5226     5226     5226     5226
   
  number of gridpoints: 
     atom       C15      C16      C17      C18      C19      O20      H21
  grid # 1       95       97       98       96       96      114      110
  grid # 2      338      337      358      333      335      428      442
  grid # 3      135      209      194      127      130      790     1121
  grid # 4     4304     4304     4304     4304     4304     4304     4304
  grid # 5     1192     1192     1192     1192     1192     1192     1192
  grid # 6     5226     5226     5226     5226     5226     5226     5226
   
  number of gridpoints: 
     atom       H22      H23      H24      H25      H26      H27      H28
  grid # 1      109      107      101      106      106      113      115
  grid # 2      437      426      400      418      421      431      433
  grid # 3     1007      739      255      500      498      736      816
  grid # 4     4304     4304     4304     4304     4304     4304     4304
  grid # 5     1192     1192     1192     1192     1192     1192     1192
  grid # 6     5226     5226     5226     5226     5226     5226     5226
   
  number of gridpoints: 
     atom       H29      H30      H31      H32      H33      H34      H35
  grid # 1      118      109      114      107      108      107      109
  grid # 2      452      421      451      422      423      427      432
  grid # 3     1293      597     1301      479      683      614      882
  grid # 4     4304     4304     4304     4304     4304     4304     4304
  grid # 5     1192     1192     1192     1192     1192     1192     1192
  grid # 6     5226     5226     5226     5226     5226     5226     5226
   
  number of gridpoints: 
     atom       H36      H37      H38      H39      H40      H41      H42
  grid # 1      109      107      110      118      115      111      114
  grid # 2      439      418      429      443      442      432      450
  grid # 3     1112      693      742     1164      949      719     1340
  grid # 4     4304     4304     4304     4304     4304     4304     4304
  grid # 5     1192     1192     1192     1192     1192     1192     1192
  grid # 6     5226     5226     5226     5226     5226     5226     5226
   
  number of gridpoints: 
     atom     total
  grid # 1     4324
  grid # 2    16221
  grid # 3    21492
  grid # 4   180768
  grid # 5    50064
  grid # 6   219492
   
  Peak memory usage:   3771 Mb
  
  end of program grid
   
 Time(grid)  user:       26.2  user+sys:       26.2  wallclock:        2.5
  
  start of program rwr
  
  Peak memory usage:   3736 Mb
  
  end of program rwr
   
 Time(rwr)  user:       53.6  user+sys:       53.6  wallclock:        5.2
  
  start of program scf
  
 Energy computed with NOPS off.
  
       i  u  d  i  g                   
       t  p  i  c  r                                 RMS    maximum
       e  d  i  u  i                       energy  density   DIIS  
       r  t  s  t  d       total energy    change  change    error 
  
etot    1  N  N  2  U    -849.06906023587           1.0E-03  1.0E-02
etot    2  Y  Y  6  M    -849.09370572628  2.5E-02  4.0E-04  2.2E-03
etot    3  N  Y  2  U    -849.09194587051 -1.8E-03  4.5E-04  7.0E-03
etot    4  Y  Y  6  M    -849.09374203605  1.8E-03  2.1E-04  6.4E-03
etot    5  Y  Y  6  M    -849.09435276520  6.1E-04  5.0E-05  1.0E-03
etot    6  Y  Y  6  M    -849.09435702168  4.3E-06  1.8E-05  4.3E-04
etot    7  N  Y  2  U    -849.09431600738 -4.1E-05  9.8E-06  1.1E-04
etot    8  N  Y  2  U    -849.09431631972  3.1E-07  6.5E-06  9.0E-05
etot    9  N  Y  2  U    -849.09431656904  2.5E-07  3.3E-06  5.0E-05
etot   10  N  N  2  U    -849.09431664655  7.8E-08  0.0E+00  0.0E+00
  
  
 Energy components, in hartrees:
   (A)  Nuclear repulsion............    1535.68001664321
   (E)  Total one-electron terms.....   -4181.03760443328
   (I)  Total two-electron terms.....    1796.26327114351
   (L)  Electronic energy............   -2384.77433328977  (E+I)
   (N)  Total energy.................    -849.09431664655  (A+L)
   (O)  Gas phase energy.............    -849.09431664655
  
                                 Total             Coulomb       Exchange+Corr.
 Total two-electron terms    1796.26327114351    1919.01673070333    -122.75345955981
   Hamiltonian  1........     922.14878187081     965.88266614614     -43.73388427533
   Hamiltonian  2........     909.81741851368     953.13406455719     -43.31664604351
  
 SCFE: SCF energy: UDFT(b3lyp)      -849.09431664655 hartrees   iterations:  10
  
 
 Alpha HOMO energy:    -0.36313
 Alpha LUMO energy:    -0.16040
 
  Alpha Orbital energies (hartrees): 
   -19.33941   -19.32606   -10.42010   -10.40812   -10.35557   -10.34617
   -10.34344   -10.34234   -10.33692   -10.33688   -10.33631   -10.33557
   -10.33331   -10.33329   -10.33186   -10.33045   -10.29930   -10.29411
   -10.27236   -10.27199    -1.22844    -1.21446    -1.01482    -1.00285
    -0.95120    -0.91253    -0.90634    -0.89633    -0.87942    -0.86591
    -0.82833    -0.79159    -0.77187    -0.76487    -0.74975    -0.74129
    -0.70980    -0.70026    -0.69471    -0.68975    -0.62977    -0.62388
    -0.62342    -0.60180    -0.59721    -0.58364    -0.57984    -0.57470
    -0.57033    -0.56513    -0.55518    -0.55041    -0.54104    -0.53214
    -0.52584    -0.51857    -0.51534    -0.50542    -0.49816    -0.48863
    -0.48162    -0.47933    -0.47075    -0.46722    -0.45796    -0.44729
    -0.44558    -0.43814    -0.42820    -0.40891    -0.38887    -0.37051
    -0.36313    -0.16040    -0.15268    -0.14342    -0.14042    -0.07453
    -0.06347    -0.03706    -0.02497    -0.02351    -0.01953
 
 
 Beta HOMO energy:    -0.34301
 Beta LUMO energy:    -0.31795
 
  Beta Orbital energies (hartrees): 
   -19.33605   -19.32344   -10.41803   -10.40653   -10.35307   -10.34540
   -10.34216   -10.34189   -10.33637   -10.33628   -10.33612   -10.33502
   -10.33294   -10.33234   -10.33172   -10.33063   -10.29919   -10.29399
   -10.27229   -10.27196    -1.22124    -1.20883    -1.01058    -0.99935
    -0.94780    -0.90863    -0.90442    -0.89502    -0.87553    -0.86355
    -0.82612    -0.78973    -0.76962    -0.76280    -0.74704    -0.73955
    -0.70846    -0.69862    -0.69339    -0.68819    -0.62817    -0.62201
    -0.62148    -0.60020    -0.59568    -0.58189    -0.57673    -0.57204
    -0.56896    -0.55449    -0.54625    -0.54502    -0.53849    -0.53050
    -0.52367    -0.51657    -0.51263    -0.50315    -0.49370    -0.48414
    -0.47916    -0.47705    -0.46846    -0.46117    -0.45033    -0.44570
    -0.44390    -0.43550    -0.42548    -0.40557    -0.38416    -0.34301
    -0.31795    -0.15260    -0.13893    -0.13490    -0.13070    -0.07315
    -0.06238    -0.03529    -0.02328    -0.02119
 
  
  
    Unrestricted Spin Properties ...
    Sz*(Sz+1)      0.750
    <S**2> ...     0.754
  
  
  Peak memory usage:   5788 Mb
  
  end of program scf
   
 Time(scf)  user:      193.6  user+sys:      193.6  wallclock:       14.5
  
  start of program der1a
  
  Peak memory usage:   3824 Mb
  
  end of program der1a
   
 Time(der1a)  user:        3.3  user+sys:        3.3  wallclock:        0.8
  
  start of program rwr
  
  Peak memory usage:   3747 Mb
  
  end of program rwr
   
 Time(rwr)  user:       42.3  user+sys:       42.3  wallclock:        5.2
  
  start of program der1b
  
   
  forces (hartrees/bohr) : total     
   
 atom  label           x              y              z
 ---- --------   -------------  -------------  -------------
    1 C1          4.816205E-04   1.246957E-03   4.551070E-05
    2 C2         -2.378845E-03   2.568181E-03   3.414358E-03
    3 C3         -1.262412E-02  -4.348243E-03   9.430249E-03
    4 C4         -2.529577E-03   5.448154E-04  -2.327584E-03
    5 C5          1.253434E-02   5.009177E-05  -1.130350E-03
    6 C6         -6.649807E-03   2.389479E-03  -3.781707E-03
    7 C7         -6.735953E-03  -1.914412E-03  -5.183750E-04
    8 C8          8.392681E-03   1.142667E-03   1.212824E-04
    9 C9          9.066662E-04  -4.572025E-03   2.368013E-03
   10 O10         4.674845E-03   4.994805E-03   2.453659E-03
   11 C11         1.563076E-02  -9.620701E-04  -1.133275E-02
   12 C12        -4.523155E-03   1.352467E-03   1.427704E-03
   13 C13        -7.766268E-05   4.903284E-04  -2.450886E-04
   14 C14         4.886298E-03   2.727181E-03  -5.610199E-03
   15 C15        -9.770886E-04  -1.286662E-03  -3.004880E-03
   16 C16         1.359932E-04  -2.928217E-03   6.449265E-04
   17 C17        -7.015146E-03   1.883313E-03   1.430776E-03
   18 C18         1.059788E-02  -1.669873E-03   5.275921E-04
   19 C19        -8.230745E-03   4.904810E-04   5.690539E-03
   20 O20         4.436180E-03   4.819899E-03  -4.424612E-03
   21 H21        -3.748129E-04   3.456268E-04   6.969289E-04
   22 H22        -1.425149E-04   4.051831E-05  -1.612649E-04
   23 H23         2.072889E-03  -1.047901E-03  -3.596811E-04
   24 H24         1.722957E-03   5.766461E-04   3.470378E-04
   25 H25        -7.928716E-04  -1.101803E-03  -2.389728E-04
   26 H26         8.907879E-05   1.895165E-03   1.485186E-04
   27 H27         1.007405E-03   1.185404E-03  -4.661767E-04
   28 H28        -6.704481E-03  -8.271709E-04   1.756182E-03
   29 H29         2.208883E-03  -2.208387E-03  -5.631533E-04
   30 H30        -6.913693E-04   1.526379E-03   1.050774E-03
   31 H31        -3.597088E-03  -5.534095E-04  -6.642768E-04
   32 H32        -1.756928E-03  -4.133309E-04  -8.846707E-04
   33 H33        -5.385257E-04  -1.090384E-03   3.545260E-03
   34 H34         7.047332E-04   3.205622E-04  -1.752784E-04
   35 H35        -4.281421E-05  -9.852313E-04  -3.519774E-04
   36 H36         4.603180E-04  -1.238230E-03  -1.057381E-04
   37 H37        -2.621780E-04  -5.820139E-04  -3.770750E-04
   38 H38        -2.745935E-03   6.478828E-04  -3.175610E-04
   39 H39        -9.220459E-04  -1.316311E-03   8.852995E-04
   40 H40         5.742060E-03  -9.200333E-05  -7.416314E-04
   41 H41        -3.066304E-03  -1.617467E-04   6.281541E-04
   42 H42        -3.583187E-03  -1.525689E-03   1.125778E-03
 -------------   -------------  -------------  -------------
     total       -2.775682E-04   4.137362E-04  -4.446300E-05
   
  Peak memory usage:   5738 Mb
  
  end of program der1b
   
 Time(der1b)  user:       55.3  user+sys:       55.3  wallclock:        4.5
  
  start of program geopt
  
 ----------------------------------------------------------------------------
  Geometry optimization step  3
  Total energy:      -849.09431664655 hartrees
 ----------------------------------------------------------------------------
  
  
  Level shifts adjusted to satisfy step-size constraints
   Step size:    0.3001382
   Cos(theta):   0.8897744
   Final level shift:  -1.2347998E-01
  
  energy change:          -1.6148E-02 .  (  5.0000E-05 )
  gradient maximum:        2.1168E-02 .  (  4.5000E-04 )
  gradient rms:            4.7033E-03 .  (  3.0000E-04 )
  displacement maximum:    1.0574E-01 .  (  1.8000E-03 )
  displacement rms:        2.5638E-02 .  (  1.2000E-03 )
  
  predicted energy change:  -1.2909E-02
  step size:     0.30009
  trust radius:  0.30000
  
  molecular structure not yet converged...
  
  center of mass moved by:
     x:     1.3578E-02     y:     5.1470E-03     z:    -7.8868E-03
  
  new geometry: 
                                   angstroms
  atom               x                 y                 z
  C1            0.6259783493      0.1040884034      0.2306541517 
  C2            2.1615899890     -0.0037822274      0.1547247392 
  C3            2.7565798949     -1.0512405946      1.1228255561 
  C4            2.2442384235     -2.4466623137      0.8425277334 
  C5            2.2209094264     -3.4395503490      1.8610804986 
  C6            2.0686224245     -4.7821979145      1.5591336319 
  C7            1.6674800231     -5.1447441385      0.2507127299 
  C8            1.4260678093     -4.1511377681     -0.7216714521 
  C9            1.7946596394     -2.8440855748     -0.4507008246 
  O10           1.4211414857     -6.4274615886     -0.1294349109 
  C11           4.3897284551     -0.9320725585      1.2111676589 
  C12           4.9366405586      0.5188708779      1.4423687620 
  C13           4.8673885783      1.5488076597      0.2946221846 
  C14           5.0378312498     -1.9149650427      2.1605154391 
  C15           5.4733908516     -1.5620319582      3.4654270736 
  C16           6.0561158488     -2.4944592493      4.3153730019 
  C17           6.1444331037     -3.8418352012      3.9128283997 
  C18           5.7201038277     -4.2156301234      2.6202106919 
  C19           5.2969451510     -3.2419496078      1.7315845232 
  O20           6.5547987932     -4.8548803270      4.7304143818 
  H21           0.2760190758      0.8623026149     -0.4780159783 
  H22           0.3155266713      0.4217910054      1.2332879515 
  H23           0.1060662239     -0.8316617494      0.0030950538 
  H24           2.5576231844      0.9747246207      0.4179475908 
  H25           2.4975485505     -0.1944360536     -0.8723722945 
  H26           2.4187115151     -0.8006919035      2.1422654472 
  H27           2.4657641828     -3.1552201539      2.8784204123 
  H28           2.2856252428     -5.5434746042      2.3017266137 
  H29           1.0279990028     -4.4458806713     -1.6839339040 
  H30           1.7231834833     -2.1145478068     -1.2458581424 
  H31           1.6577030093     -7.0995412062      0.5441678708 
  H32           4.7116740641     -1.2316003344      0.1998218539 
  H33           6.0029273832      0.3771785413      1.6503261364 
  H34           4.4861165107      0.9502859940      2.3468266312 
  H35           5.0771406061      1.0924607607     -0.6798965329 
  H36           5.6369136820      2.3097172943      0.4670268852 
  H37           3.9142700245      2.0762247679      0.2245715163 
  H38           5.3951540637     -0.5375228259      3.8048998924 
  H39           6.4262450422     -2.1859288276      5.2878478747 
  H40           5.7907219392     -5.2593337577      2.3377133057 
  H41           5.0876128413     -3.5175384830      0.7037644694 
  H42           7.0010132417     -4.5480995296      5.5470800332 
   
  nuclear repulsion energy.......    1534.469267848 hartrees
  -------------------------------------------------
 /  end of geometry optimization iteration   3   /
 -------------------------------------------------
   
  Peak memory usage:   4727 Mb
  
  end of program geopt
   
 Time(geopt)  user:       10.0  user+sys:       10.0  wallclock:        0.9
  
  start of program onee
  
  smallest eigenvalue of S:    6.392E-04
  number of canonical orbitals.....          224
  Peak memory usage:   3812 Mb
  
  end of program onee
   
 Time(onee)  user:        4.3  user+sys:        4.3  wallclock:        0.6
  
  start of program probe
  
  Peak memory usage:   3726 Mb
  
  end of program probe
   
 Time(probe)  user:        2.7  user+sys:        2.7  wallclock:        0.8
  
  start of program grid
  
   grid     grid set  grid #  grid sym
  ------    --------  ------  --------
  coarse        0        0        1
  medium        2        1        1
  fine          0        0        1
  ultrafine     4        2        1
  charge       -1        3        1
  gradient      4        2        1
  density       0        0        1
  DFT-fine    -11        4        1
  DFT-med.    -10        5        1
  DFT-grad    -12        6        1
  DFT-der2      0        0        1
  DFT-cphf      0        0        1
  LMP2-enrg     4        2        1
  LMP2-grad     2        1        1
  DFT-cphf2     0        0        1
  PBF-dens      0        0        1
  plotting      0        0        1
  Rel-grad    -17        0        1
  
  number of gridpoints: 
     atom        C1       C2       C3       C4       C5       C6       C7
  grid # 1       79       87       90      100       95       96       97
  grid # 2      267      296      318      358      333      335      359
  grid # 3        6        6        6       34      124      154      192
  grid # 4     4304     4304     4304     4304     4304     4304     4304
  grid # 5     1192     1192     1192     1192     1192     1192     1192
  grid # 6     5226     5226     5226     5226     5226     5226     5226
   
  number of gridpoints: 
     atom        C8       C9      O10      C11      C12      C13      C14
  grid # 1       96       95      114       92       86       78      100
  grid # 2      336      333      424      322      290      268      357
  grid # 3      186       82      776        6        6        6       46
  grid # 4     4304     4304     4304     4304     4304     4304     4304
  grid # 5     1192     1192     1192     1192     1192     1192     1192
  grid # 6     5226     5226     5226     5226     5226     5226     5226
   
  number of gridpoints: 
     atom       C15      C16      C17      C18      C19      O20      H21
  grid # 1       95       96       98       95       96      114      111
  grid # 2      337      336      357      336      336      426      444
  grid # 3      120      201      199      142      127      768     1122
  grid # 4     4304     4304     4304     4304     4304     4304     4304
  grid # 5     1192     1192     1192     1192     1192     1192     1192
  grid # 6     5226     5226     5226     5226     5226     5226     5226
   
  number of gridpoints: 
     atom       H22      H23      H24      H25      H26      H27      H28
  grid # 1      110      108      100      105      107      114      117
  grid # 2      440      427      398      414      420      434      440
  grid # 3      994      743      227      483      467      771      938
  grid # 4     4304     4304     4304     4304     4304     4304     4304
  grid # 5     1192     1192     1192     1192     1192     1192     1192
  grid # 6     5226     5226     5226     5226     5226     5226     5226
   
  number of gridpoints: 
     atom       H29      H30      H31      H32      H33      H34      H35
  grid # 1      118      109      113      105      108      107      109
  grid # 2      451      423      450      423      424      425      430
  grid # 3     1286      618     1315      441      689      620      865
  grid # 4     4304     4304     4304     4304     4304     4304     4304
  grid # 5     1192     1192     1192     1192     1192     1192     1192
  grid # 6     5226     5226     5226     5226     5226     5226     5226
   
  number of gridpoints: 
     atom       H36      H37      H38      H39      H40      H41      H42
  grid # 1      109      105      112      118      117      113      114
  grid # 2      440      415      430      444      447      435      450
  grid # 3     1113      680      736     1163     1089      773     1342
  grid # 4     4304     4304     4304     4304     4304     4304     4304
  grid # 5     1192     1192     1192     1192     1192     1192     1192
  grid # 6     5226     5226     5226     5226     5226     5226     5226
   
  number of gridpoints: 
     atom     total
  grid # 1     4328
  grid # 2    16228
  grid # 3    21662
  grid # 4   180768
  grid # 5    50064
  grid # 6   219492
   
  Peak memory usage:   3770 Mb
  
  end of program grid
   
 Time(grid)  user:       28.4  user+sys:       28.4  wallclock:        2.5
  
  start of program rwr
  
  Peak memory usage:   3734 Mb
  
  end of program rwr
   
 Time(rwr)  user:       50.6  user+sys:       50.6  wallclock:        4.9
  
  start of program scf
  
 Energy computed with NOPS off.
  
       i  u  d  i  g                   
       t  p  i  c  r                                 RMS    maximum
       e  d  i  u  i                       energy  density   DIIS  
       r  t  s  t  d       total energy    change  change    error 
  
etot    1  N  N  2  U    -849.06223253697           1.2E-03  1.9E-02
etot    2  Y  Y  6  M    -849.10451262700  4.2E-02  4.6E-04  2.8E-03
etot    3  N  Y  2  U    -849.10269859165 -1.8E-03  4.8E-04  1.0E-02
etot    4  Y  Y  6  M    -849.10490116914  2.2E-03  2.1E-04  5.9E-03
etot    5  Y  Y  6  M    -849.10536478153  4.6E-04  6.5E-05  1.7E-03
etot    6  N  Y  2  U    -849.10532719817 -3.8E-05  1.6E-05  2.3E-04
etot    7  N  Y  2  U    -849.10533270220  5.5E-06  8.3E-06  7.3E-05
etot    8  N  Y  2  U    -849.10533315083  4.5E-07  3.4E-06  5.1E-05
etot    9  N  N  2  U    -849.10533328940  1.4E-07  0.0E+00  0.0E+00
  
  
 Energy components, in hartrees:
   (A)  Nuclear repulsion............    1534.46926784789
   (E)  Total one-electron terms.....   -4178.70285914691
   (I)  Total two-electron terms.....    1795.12825800962
   (L)  Electronic energy............   -2383.57460113729  (E+I)
   (N)  Total energy.................    -849.10533328940  (A+L)
   (O)  Gas phase energy.............    -849.10533328940
  
                                 Total             Coulomb       Exchange+Corr.
 Total two-electron terms    1795.12825800962    1917.91960257715    -122.79134456753
   Hamiltonian  1........     921.58699337314     965.33505103991     -43.74805766678
   Hamiltonian  2........     909.25434314400     952.58455153724     -43.33020839324
  
 SCFE: SCF energy: UDFT(b3lyp)      -849.10533328940 hartrees   iterations:   9
  
 
 Alpha HOMO energy:    -0.36268
 Alpha LUMO energy:    -0.15448
 
  Alpha Orbital energies (hartrees): 
   -19.33720   -19.32585   -10.41643   -10.40617   -10.35153   -10.34370
   -10.34229   -10.33952   -10.33603   -10.33528   -10.33376   -10.33245
   -10.33209   -10.33170   -10.33005   -10.32929   -10.29960   -10.29292
   -10.27246   -10.27149    -1.22918    -1.21713    -1.01403    -1.00339
    -0.95229    -0.91341    -0.90430    -0.89595    -0.88040    -0.86647
    -0.82801    -0.79215    -0.77269    -0.76539    -0.74880    -0.74141
    -0.70924    -0.69890    -0.69489    -0.69056    -0.63108    -0.62353
    -0.62248    -0.60142    -0.59484    -0.58165    -0.57852    -0.57420
    -0.56852    -0.56535    -0.55706    -0.54981    -0.54048    -0.53253
    -0.52571    -0.51801    -0.51343    -0.50522    -0.49610    -0.48597
    -0.48363    -0.47829    -0.47193    -0.46785    -0.45840    -0.44752
    -0.44471    -0.43915    -0.42699    -0.40640    -0.39121    -0.36987
    -0.36268    -0.15448    -0.15041    -0.14055    -0.13918    -0.07118
    -0.06274    -0.03312    -0.02497    -0.02244    -0.01656
 
 
 Beta HOMO energy:    -0.34307
 Beta LUMO energy:    -0.31664
 
  Beta Orbital energies (hartrees): 
   -19.33389   -19.32321   -10.41441   -10.40459   -10.34917   -10.34291
   -10.34067   -10.33936   -10.33520   -10.33464   -10.33372   -10.33213
   -10.33156   -10.33146   -10.32965   -10.32899   -10.29946   -10.29277
   -10.27243   -10.27140    -1.22211    -1.21146    -1.00985    -0.99986
    -0.94883    -0.90933    -0.90255    -0.89466    -0.87656    -0.86408
    -0.82565    -0.79027    -0.77045    -0.76331    -0.74615    -0.73967
    -0.70780    -0.69727    -0.69356    -0.68899    -0.62953    -0.62172
    -0.62055    -0.59978    -0.59330    -0.58003    -0.57475    -0.57259
    -0.56675    -0.55459    -0.54736    -0.54497    -0.53810    -0.53068
    -0.52364    -0.51587    -0.51089    -0.50294    -0.49147    -0.48238
    -0.48036    -0.47626    -0.46955    -0.46150    -0.45138    -0.44609
    -0.44277    -0.43621    -0.42374    -0.40309    -0.38728    -0.34307
    -0.31664    -0.14677    -0.13796    -0.13326    -0.12700    -0.06989
    -0.06168    -0.03166    -0.02397    -0.02028
 
  
  
    Unrestricted Spin Properties ...
    Sz*(Sz+1)      0.750
    <S**2> ...     0.754
  
  
  Peak memory usage:   5788 Mb
  
  end of program scf
   
 Time(scf)  user:      180.9  user+sys:      180.9  wallclock:       13.8
  
  start of program der1a
  
  Peak memory usage:   3824 Mb
  
  end of program der1a
   
 Time(der1a)  user:        4.6  user+sys:        4.6  wallclock:        1.0
  
  start of program rwr
  
  Peak memory usage:   3748 Mb
  
  end of program rwr
   
 Time(rwr)  user:       41.3  user+sys:       41.3  wallclock:        5.1
  
  start of program der1b
  
   
  forces (hartrees/bohr) : total     
   
 atom  label           x              y              z
 ---- --------   -------------  -------------  -------------
    1 C1         -3.240023E-04   9.621414E-04  -1.784610E-04
    2 C2         -1.905398E-03   2.428656E-03   2.116836E-03
    3 C3         -1.061767E-02  -9.012823E-04   1.241030E-02
    4 C4         -1.478478E-03  -1.330079E-04  -3.320261E-03
    5 C5          1.281584E-02   5.038475E-04   1.377609E-03
    6 C6         -2.967057E-03   7.612344E-04  -2.927958E-04
    7 C7         -7.806047E-03  -4.866178E-04   9.636987E-04
    8 C8          6.743577E-03   2.015183E-03  -2.318936E-03
    9 C9          3.469084E-04  -8.005963E-04  -9.461135E-04
   10 O10         3.989913E-03  -1.814324E-03   1.094472E-03
   11 C11         8.963798E-03  -2.073473E-03  -1.463643E-02
   12 C12        -3.413626E-03  -6.870967E-04   1.746631E-03
   13 C13         3.176101E-03   4.848415E-04  -7.892843E-04
   14 C14         5.184278E-03   2.536581E-03  -2.765937E-03
   15 C15         1.985533E-04   2.101283E-04   6.653530E-06
   16 C16         5.218600E-04   1.140345E-03   1.866265E-03
   17 C17        -8.082365E-03   9.868998E-04   1.263509E-03
   18 C18         8.163238E-03  -1.275593E-03  -4.512356E-03
   19 C19        -9.658319E-03  -2.580964E-03   2.421316E-03
   20 O20         5.884339E-03   1.361454E-03  -3.498975E-04
   21 H21        -5.621161E-04  -3.241366E-05   3.670745E-04
   22 H22        -4.086191E-04  -3.725073E-04  -1.509625E-04
   23 H23         8.019155E-04  -7.438973E-05  -2.110506E-04
   24 H24        -1.616799E-03  -2.314064E-03   1.160067E-04
   25 H25        -3.357013E-04  -2.265095E-04  -2.280868E-04
   26 H26         1.389422E-03   1.265164E-03  -9.991520E-05
   27 H27         1.333144E-03  -1.211155E-04  -2.454089E-04
   28 H28        -5.133184E-03  -4.852137E-05   1.544810E-03
   29 H29         1.107537E-03  -5.887530E-04  -5.724133E-04
   30 H30        -3.103202E-04   2.512720E-04   2.111748E-04
   31 H31        -2.360203E-03  -1.348271E-04  -3.601725E-04
   32 H32        -8.525003E-04   4.603401E-04   2.094680E-04
   33 H33        -8.579501E-05   6.429609E-04   2.868938E-03
   34 H34         3.683030E-04   5.529840E-05   5.556272E-05
   35 H35        -1.892059E-04  -4.983540E-04   8.299245E-05
   36 H36         6.793180E-05   4.913119E-06  -4.416336E-04
   37 H37         2.222095E-03   5.129480E-04  -1.598189E-04
   38 H38        -2.103495E-03   2.876758E-04   5.453719E-04
   39 H39        -9.187102E-04  -3.499041E-04   6.736461E-04
   40 H40         2.684450E-03   5.964080E-04  -1.026815E-03
   41 H41        -2.544747E-03  -5.687603E-04   5.973023E-04
   42 H42        -2.419507E-03  -1.103084E-03   1.130268E-03
 -------------   -------------  -------------  -------------
     total       -1.306672E-04   2.821355E-04   6.315783E-05
   
  Peak memory usage:   5737 Mb
  
  end of program der1b
   
 Time(der1b)  user:       55.3  user+sys:       55.3  wallclock:        4.3
  
  start of program geopt
  
 ----------------------------------------------------------------------------
  Geometry optimization step  4
  Total energy:      -849.10533328940 hartrees
 ----------------------------------------------------------------------------
  
  
  Level shifts adjusted to satisfy step-size constraints
   Step size:    0.3001233
   Cos(theta):   0.8348196
   Final level shift:  -8.6922518E-02
  
  energy change:          -1.1017E-02 .  (  5.0000E-05 )
  gradient maximum:        1.5965E-02 .  (  4.5000E-04 )
  gradient rms:            3.6150E-03 .  (  3.0000E-04 )
  displacement maximum:    1.0714E-01 .  (  1.8000E-03 )
  displacement rms:        2.5639E-02 .  (  1.2000E-03 )
  
  predicted energy change:  -9.2155E-03
  step size:     0.30010
  trust radius:  0.30000
  
  molecular structure not yet converged...
  
  center of mass moved by:
     x:     4.6633E-03     y:     8.8945E-03     z:    -1.2007E-02
  
  new geometry: 
                                   angstroms
  atom               x                 y                 z
  C1            0.5455323521      0.0613582229      0.3046773896 
  C2            2.0806879025      0.0101984507      0.2022519169 
  C3            2.7206603878     -1.0406652078      1.1377849715 
  C4            2.2452507209     -2.4421824237      0.8459832381 
  C5            2.1991339429     -3.4200871602      1.8752894427 
  C6            2.0094132631     -4.7623968009      1.5942507650 
  C7            1.6694663502     -5.1462864439      0.2758050130 
  C8            1.5141732234     -4.1730580764     -0.7316211977 
  C9            1.8588311323     -2.8603001069     -0.4602784716 
  O10           1.3976570121     -6.4286603446     -0.0812878744 
  C11           4.3702132571     -0.9244946341      1.2017646871 
  C12           4.9562344838      0.5110767317      1.4421529552 
  C13           5.0195284435      1.5129580720      0.2691234371 
  C14           5.0064248439     -1.9167235313      2.1383937046 
  C15           5.3679335431     -1.5802092661      3.4687467986 
  C16           5.9639373681     -2.5050683655      4.3189579719 
  C17           6.1656473099     -3.8246285866      3.8724659947 
  C18           5.8181094363     -4.1836445239      2.5531283352 
  C19           5.3305260847     -3.2204928168      1.6873794418 
  O20           6.6197241934     -4.8330031431      4.6695496451 
  H21           0.1516263969      0.8317761292     -0.3665007021 
  H22           0.2362069231      0.3227223797      1.3234803483 
  H23           0.0687932256     -0.8880316428      0.0430404690 
  H24           2.4487202856      0.9908265665      0.4852331934 
  H25           2.4029166843     -0.1446255618     -0.8355926290 
  H26           2.4020299951     -0.8055557528      2.1670890937 
  H27           2.4226063494     -3.1181817331      2.8933487755 
  H28           2.1407528681     -5.5138184677      2.3660685458 
  H29           1.1818803420     -4.4928312136     -1.7111988780 
  H30           1.8127871926     -2.1358613932     -1.2625882297 
  H31           1.5424772613     -7.0901376937      0.6257699689 
  H32           4.6705451123     -1.2176561934      0.1824250632 
  H33           6.0026041874      0.3355576702      1.7174483576 
  H34           4.4722097760      0.9819276999      2.3084159325 
  H35           5.2588890884      1.0132877268     -0.6775974414 
  H36           5.8283214956      2.2245111331      0.4678809718 
  H37           4.1149351709      2.1023914921      0.1257748176 
  H38           5.2096294809     -0.5712321267      3.8294966887 
  H39           6.2644623984     -2.2142515366      5.3207099742 
  H40           6.0088529040     -5.2013404015      2.2344691598 
  H41           5.1413001635     -3.4837155364      0.6515676742 
  H42           6.9809303500     -4.5348482020      5.5286837922 
   
  nuclear repulsion energy.......    1533.811088254 hartrees
  -------------------------------------------------
 /  end of geometry optimization iteration   4   /
 -------------------------------------------------
   
  Peak memory usage:   4727 Mb
  
  end of program geopt
   
 Time(geopt)  user:        8.9  user+sys:        8.9  wallclock:        0.8
  
  start of program onee
  
  smallest eigenvalue of S:    6.167E-04
  number of canonical orbitals.....          224
  Peak memory usage:   3812 Mb
  
  end of program onee
   
 Time(onee)  user:        3.4  user+sys:        3.4  wallclock:        0.7
  
  start of program probe
  
  Peak memory usage:   3728 Mb
  
  end of program probe
   
 Time(probe)  user:        2.8  user+sys:        2.8  wallclock:        0.8
  
  start of program grid
  
   grid     grid set  grid #  grid sym
  ------    --------  ------  --------
  coarse        0        0        1
  medium        2        1        1
  fine          0        0        1
  ultrafine     4        2        1
  charge       -1        3        1
  gradient      4        2        1
  density       0        0        1
  DFT-fine    -11        4        1
  DFT-med.    -10        5        1
  DFT-grad    -12        6        1
  DFT-der2      0        0        1
  DFT-cphf      0        0        1
  LMP2-enrg     4        2        1
  LMP2-grad     2        1        1
  DFT-cphf2     0        0        1
  PBF-dens      0        0        1
  plotting      0        0        1
  Rel-grad    -17        0        1
  
  number of gridpoints: 
     atom        C1       C2       C3       C4       C5       C6       C7
  grid # 1       78       85       90      100       95       96       97
  grid # 2      268      293      318      360      334      335      359
  grid # 3        6        6        6       30      114      161      189
  grid # 4     4304     4304     4304     4304     4304     4304     4304
  grid # 5     1192     1192     1192     1192     1192     1192     1192
  grid # 6     5226     5226     5226     5226     5226     5226     5226
   
  number of gridpoints: 
     atom        C8       C9      O10      C11      C12      C13      C14
  grid # 1       95       95      114       93       86       78      100
  grid # 2      336      334      424      323      290      264      359
  grid # 3      179       77      767        6        6        6       39
  grid # 4     4304     4304     4304     4304     4304     4304     4304
  grid # 5     1192     1192     1192     1192     1192     1192     1192
  grid # 6     5226     5226     5226     5226     5226     5226     5226
   
  number of gridpoints: 
     atom       C15      C16      C17      C18      C19      O20      H21
  grid # 1       95       96       98       95       96      114      111
  grid # 2      334      335      357      336      334      426      444
  grid # 3       97      191      201      152      124      757     1128
  grid # 4     4304     4304     4304     4304     4304     4304     4304
  grid # 5     1192     1192     1192     1192     1192     1192     1192
  grid # 6     5226     5226     5226     5226     5226     5226     5226
   
  number of gridpoints: 
     atom       H22      H23      H24      H25      H26      H27      H28
  grid # 1      110      108      101      106      107      113      117
  grid # 2      439      430      406      418      419      432      441
  grid # 3      994      753      312      504      445      762      981
  grid # 4     4304     4304     4304     4304     4304     4304     4304
  grid # 5     1192     1192     1192     1192     1192     1192     1192
  grid # 6     5226     5226     5226     5226     5226     5226     5226
   
  number of gridpoints: 
     atom       H29      H30      H31      H32      H33      H34      H35
  grid # 1      118      109      113      106      108      108      109
  grid # 2      450      425      450      421      426      424      431
  grid # 3     1287      623     1321      410      681      627      897
  grid # 4     4304     4304     4304     4304     4304     4304     4304
  grid # 5     1192     1192     1192     1192     1192     1192     1192
  grid # 6     5226     5226     5226     5226     5226     5226     5226
   
  number of gridpoints: 
     atom       H36      H37      H38      H39      H40      H41      H42
  grid # 1      109      105      110      118      117      113      114
  grid # 2      440      420      430      444      448      435      451
  grid # 3     1108      746      722     1155     1143      787     1342
  grid # 4     4304     4304     4304     4304     4304     4304     4304
  grid # 5     1192     1192     1192     1192     1192     1192     1192
  grid # 6     5226     5226     5226     5226     5226     5226     5226
   
  number of gridpoints: 
     atom     total
  grid # 1     4326
  grid # 2    16243
[...]
  
  start of program onee
  
  smallest eigenvalue of S:    6.285E-04
  number of canonical orbitals.....          224
  Peak memory usage:   3812 Mb
  
  end of program onee
   
 Time(onee)  user:        4.0  user+sys:        4.0  wallclock:        0.6
  
  start of program probe
  
  Peak memory usage:   3726 Mb
  
  end of program probe
   
 Time(probe)  user:        3.1  user+sys:        3.1  wallclock:        0.8
  
  start of program grid
  
   grid     grid set  grid #  grid sym
  ------    --------  ------  --------
  coarse        0        0        1
  medium        2        1        1
  fine          0        0        1
  ultrafine     4        2        1
  charge       -1        3        1
  gradient      4        2        1
  density       0        0        1
  DFT-fine    -11        4        1
  DFT-med.    -10        5        1
  DFT-grad    -12        6        1
  DFT-der2      0        0        1
  DFT-cphf      0        0        1
  LMP2-enrg     4        2        1
  LMP2-grad     2        1        1
  DFT-cphf2     0        0        1
  PBF-dens      0        0        1
  plotting      0        0        1
  Rel-grad    -17        0        1
  
  number of gridpoints: 
     atom        C1       C2       C3       C4       C5       C6       C7
  grid # 1       77       86       91      100       95       97       99
  grid # 2      271      295      316      361      335      336      357
  grid # 3        6        6        6       21      108      180      209
  grid # 4     4304     4304     4304     4304     4304     4304     4304
  grid # 5     1192     1192     1192     1192     1192     1192     1192
  grid # 6     5226     5226     5226     5226     5226     5226     5226
   
  number of gridpoints: 
     atom        C8       C9      O10      C11      C12      C13      C14
  grid # 1       95       95      114       92       86       77      100
  grid # 2      335      334      425      320      292      270      364
  grid # 3      162       68      777        6        6        6       56
  grid # 4     4304     4304     4304     4304     4304     4304     4304
  grid # 5     1192     1192     1192     1192     1192     1192     1192
  grid # 6     5226     5226     5226     5226     5226     5226     5226
   
  number of gridpoints: 
     atom       C15      C16      C17      C18      C19      O20      H21
  grid # 1       95       96       99       97       96      114      111
  grid # 2      334      336      358      337      337      425      444
  grid # 3      100      194      224      200      152      778     1135
  grid # 4     4304     4304     4304     4304     4304     4304     4304
  grid # 5     1192     1192     1192     1192     1192     1192     1192
  grid # 6     5226     5226     5226     5226     5226     5226     5226
   
  number of gridpoints: 
     atom       H22      H23      H24      H25      H26      H27      H28
  grid # 1      110      110      102      106      105      112      118
  grid # 2      437      435      416      419      412      439      443
  grid # 3      957      822      422      434      311      867     1134
  grid # 4     4304     4304     4304     4304     4304     4304     4304
  grid # 5     1192     1192     1192     1192     1192     1192     1192
  grid # 6     5226     5226     5226     5226     5226     5226     5226
   
  number of gridpoints: 
     atom       H29      H30      H31      H32      H33      H34      H35
  grid # 1      118      110      114      104      107      104      110
  grid # 2      447      431      450      412      428      419      439
  grid # 3     1278      656     1333      264      740      528      983
  grid # 4     4304     4304     4304     4304     4304     4304     4304
  grid # 5     1192     1192     1192     1192     1192     1192     1192
  grid # 6     5226     5226     5226     5226     5226     5226     5226
   
  number of gridpoints: 
     atom       H36      H37      H38      H39      H40      H41      H42
  grid # 1      111      106      111      118      118      112      114
  grid # 2      444      422      434      443      447      441      450
  grid # 3     1132      618      701     1146     1281      870     1334
  grid # 4     4304     4304     4304     4304     4304     4304     4304
  grid # 5     1192     1192     1192     1192     1192     1192     1192
  grid # 6     5226     5226     5226     5226     5226     5226     5226
   
  number of gridpoints: 
     atom     total
  grid # 1     4332
  grid # 2    16290
  grid # 3    22211
  grid # 4   180768
  grid # 5    50064
  grid # 6   219492
   
  Peak memory usage:   3771 Mb
  
  end of program grid
   
 Time(grid)  user:       29.1  user+sys:       29.1  wallclock:        2.7
  
  start of program rwr
  
  Peak memory usage:   3741 Mb
  
  end of program rwr
   
 Time(rwr)  user:       57.6  user+sys:       57.6  wallclock:        5.2
  
  start of program scf
  
 Energy computed with NOPS off.
  
       i  u  d  i  g                   
       t  p  i  c  r                                 RMS    maximum
       e  d  i  u  i                       energy  density   DIIS  
       r  t  s  t  d       total energy    change  change    error 
  
etot    1  N  N  2  U    -849.12797971147           1.3E-04  1.8E-03
etot    2  Y  Y  6  M    -849.12852187754  5.4E-04  2.5E-05  2.7E-04
etot    3  N  Y  2  U    -849.12852292071  1.0E-06  1.8E-05  4.4E-04
etot    4  N  Y  2  U    -849.12852854723  5.6E-06  1.8E-05  3.1E-04
etot    5  N  Y  2  U    -849.12852757034 -9.8E-07  1.2E-05  3.9E-04
etot    6  N  Y  2  U    -849.12852977588  2.2E-06  1.5E-06  3.2E-05
etot    7  N  N  2  U    -849.12852981438  3.9E-08  0.0E+00  0.0E+00
  
  
 Energy components, in hartrees:
   (A)  Nuclear repulsion............    1523.24004128965
   (E)  Total one-electron terms.....   -4156.52744419010
   (I)  Total two-electron terms.....    1784.15887308607
   (L)  Electronic energy............   -2372.36857110403  (E+I)
   (N)  Total energy.................    -849.12852981438  (A+L)
   (O)  Gas phase energy.............    -849.12852981438
  
                                 Total             Coulomb       Exchange+Corr.
 Total two-electron terms    1784.15887308607    1906.94576308691    -122.78689000084
   Hamiltonian  1........     916.06573085086     959.81355475588     -43.74782390502
   Hamiltonian  2........     903.80516407748     947.13220833103     -43.32704425354
  
 SCFE: SCF energy: UDFT(b3lyp)      -849.12852981438 hartrees   iterations:   7
  
 
 Alpha HOMO energy:    -0.36102
 Alpha LUMO energy:    -0.14661
 
  Alpha Orbital energies (hartrees): 
   -19.32964   -19.32687   -10.41033   -10.40793   -10.34476   -10.34332
   -10.33587   -10.33580   -10.33529   -10.33262   -10.33230   -10.33201
   -10.33129   -10.32960   -10.32953   -10.32788   -10.29836   -10.29787
   -10.27180   -10.27153    -1.22132    -1.21848    -1.01061    -1.00236
    -0.95220    -0.91100    -0.89885    -0.89719    -0.87864    -0.86675
    -0.82482    -0.78836    -0.77207    -0.76433    -0.74687    -0.73642
    -0.71018    -0.69828    -0.69407    -0.68776    -0.63445    -0.61936
    -0.61713    -0.60254    -0.58594    -0.58157    -0.57754    -0.56952
    -0.56811    -0.56008    -0.55793    -0.54706    -0.54370    -0.53399
    -0.52373    -0.51543    -0.50804    -0.49819    -0.49226    -0.48706
    -0.47910    -0.47735    -0.47435    -0.46607    -0.45508    -0.45421
    -0.44590    -0.43603    -0.43284    -0.39952    -0.39785    -0.36694
    -0.36102    -0.14661    -0.14382    -0.14254    -0.13630    -0.06489
    -0.06303    -0.03375    -0.02698    -0.02421    -0.01142
 
 
 Beta HOMO energy:    -0.34036
 Beta LUMO energy:    -0.31409
 
  Beta Orbital energies (hartrees): 
   -19.32659   -19.32396   -10.40852   -10.40625   -10.34271   -10.34127
   -10.33558   -10.33513   -10.33493   -10.33252   -10.33160   -10.33104
   -10.33059   -10.32979   -10.32956   -10.32735   -10.29797   -10.29739
   -10.27173   -10.27145    -1.21481    -1.21226    -1.00665    -0.99856
    -0.94870    -0.90665    -0.89740    -0.89580    -0.87478    -0.86403
    -0.82234    -0.78650    -0.76985    -0.76215    -0.74446    -0.73433
    -0.70848    -0.69690    -0.69245    -0.68658    -0.63301    -0.61735
    -0.61556    -0.60092    -0.58433    -0.57994    -0.57387    -0.56895
    -0.56758    -0.54780    -0.54762    -0.54394    -0.54001    -0.53098
    -0.52199    -0.51370    -0.50605    -0.49615    -0.48880    -0.48154
    -0.47722    -0.47459    -0.46607    -0.46370    -0.45366    -0.45017
    -0.44281    -0.43372    -0.42752    -0.39630    -0.39478    -0.34036
    -0.31409    -0.13840    -0.13695    -0.13062    -0.12331    -0.06374
    -0.06193    -0.03321    -0.02631    -0.02332
 
  
  
    Unrestricted Spin Properties ...
    Sz*(Sz+1)      0.750
    <S**2> ...     0.754
  
  
  Peak memory usage:   5788 Mb
  
  end of program scf
   
 Time(scf)  user:      170.6  user+sys:      170.6  wallclock:       13.2
  
  start of program der1a
  
  Peak memory usage:   3825 Mb
  
  end of program der1a
   
 Time(der1a)  user:        4.4  user+sys:        4.4  wallclock:        1.0
  
  start of program rwr
  
  Peak memory usage:   3747 Mb
  
  end of program rwr
   
 Time(rwr)  user:       41.9  user+sys:       41.9  wallclock:        4.9
  
  start of program der1b
  
   
  forces (hartrees/bohr) : total     
   
 atom  label           x              y              z
 ---- --------   -------------  -------------  -------------
    1 C1         -6.031708E-05  -3.466927E-05   7.760527E-06
    2 C2          1.019105E-04   3.679835E-05   2.817878E-05
    3 C3          9.303105E-05   6.423664E-05  -1.315738E-04
    4 C4         -1.554206E-04  -1.981956E-05   1.272706E-04
    5 C5         -5.214016E-07  -5.372947E-05   2.054643E-05
    6 C6          2.947870E-05  -5.489513E-06  -3.229601E-06
    7 C7         -1.013781E-04   4.045025E-05   6.577983E-05
    8 C8          3.904451E-05   2.788950E-05  -3.607783E-05
    9 C9         -1.862160E-06   1.605774E-05  -1.072835E-04
   10 O10         3.264599E-05  -7.102895E-05  -7.344851E-06
   11 C11        -1.009269E-04  -1.726193E-05   1.408554E-04
   12 C12         2.529063E-05  -2.795079E-05   4.518007E-05
   13 C13         8.019038E-06   8.859705E-07  -2.763202E-05
   14 C14        -2.549025E-05   6.402021E-05  -1.497933E-04
   15 C15        -4.576971E-05  -3.675820E-05   8.823329E-05
   16 C16        -7.875964E-05   5.624758E-05   2.472604E-06
   17 C17         7.981313E-05  -4.709188E-05   6.488462E-05
   18 C18        -9.154643E-06   5.974606E-05  -1.420987E-04
   19 C19         1.325452E-05  -1.169494E-04   4.613326E-05
   20 O20        -1.145108E-05   3.246424E-05  -3.245015E-05
   21 H21        -1.067124E-05  -9.223196E-06   3.618151E-06
   22 H22        -1.464745E-05   5.123718E-06   9.922816E-06
   23 H23        -1.078464E-05  -2.046159E-05  -3.049022E-06
   24 H24        -4.686081E-05  -1.221326E-05  -9.279563E-06
   25 H25        -2.049250E-05   2.333579E-05   1.338227E-05
   26 H26         4.077857E-06  -1.287126E-05   1.086102E-05
   27 H27        -2.250157E-05   2.039783E-05  -1.167605E-05
   28 H28         2.621648E-06   3.792870E-06   5.085350E-06
   29 H29        -2.744304E-05   7.182291E-06   2.023100E-05
   30 H30         2.388841E-06  -1.830216E-05   7.166372E-06
   31 H31        -5.060766E-05  -2.472440E-05   1.369347E-05
   32 H32        -3.597683E-05   1.519503E-05  -3.447972E-05
   33 H33        -3.360396E-05  -4.814061E-07  -9.431924E-06
   34 H34        -4.764161E-05   2.781525E-05  -1.723437E-05
   35 H35        -1.015950E-05   1.201670E-05  -2.263246E-05
   36 H36        -6.875521E-06  -8.679500E-06  -2.538942E-05
   37 H37        -2.032403E-05   4.568012E-06   3.637605E-06
   38 H38         1.617186E-05   2.391534E-05  -1.848356E-05
   39 H39         6.792760E-06   2.003015E-05  -1.815855E-05
   40 H40        -5.553991E-05   3.711398E-06   1.342427E-05
   41 H41         1.660572E-06   2.654463E-05  -9.151504E-06
   42 H42        -1.132849E-05  -9.983092E-06   3.698647E-05
 -------------   -------------  -------------  -------------
     total       -5.603086E-04   4.473674E-05  -4.114580E-05
   
  Peak memory usage:   5737 Mb
  
  end of program der1b
   
 Time(der1b)  user:       54.4  user+sys:       54.4  wallclock:        4.6
  
  start of program geopt
  
 ----------------------------------------------------------------------------
  Geometry optimization step 17
  Total energy:      -849.12852981438 hartrees
 ----------------------------------------------------------------------------
  
  energy change:           1.1797E-05 *  (  5.0000E-05 )
  gradient maximum:        1.6191E-04 *  (  4.5000E-04 )
  gradient rms:            4.5832E-05 #  (  3.0000E-04 )
  displacement maximum:    3.4956E-03 .  (  1.8000E-03 )
  displacement rms:        8.8470E-04 *  (  1.2000E-03 )
  
  predicted energy change:  -7.6395E-07
  step size:     0.01036
  trust radius:  0.30000
  
  ********************************************************
  **           Geometry optimization complete           **
  ********************************************************
  
  Checking the geometry optimization convergence pattern ...
  
  WARNING:
  The energy on the last optimization iteration,
     -849.128529814382
  is higher than the energy on one of the previous iterations,
     -849.128541610965
  The difference between these two energies is 0.007 kcal/mole.
  This situation is symptomatic of potential problems with the
  initial and/or the converged structures.
  
  best                    worst
  ==0=====1=====2=====3=====4==
                      ^        
  
  Convergence category 3: convergence to a non-optimal structure.
  The difference between the final and the minimal
  energies is less than 0.010 kcal/mole.
  Peudospectral approximation:
  Geometry optimization was OK.
  
  Number of imaginary frequencies:   0
  
  center of mass moved by:
     x:     0.0000E+00     y:     0.0000E+00     z:     0.0000E+00
  
  final geometry: 
                                   angstroms
  atom               x                 y                 z
  C1            0.4871097389     -0.0725183592      0.8131703189 
  C2            2.0027001367     -0.0401386528      0.5496418394 
  C3            2.7672922782     -1.1672520555      1.3113568827 
  C4            2.2911343558     -2.5313708156      0.8889580102 
  C5            1.7798967293     -3.4496144415      1.8398580673 
  C6            1.3065627108     -4.6979576777      1.4607639288 
  C7            1.3529718752     -5.0680762044      0.0975511700 
  C8            1.8727449461     -4.1787330149     -0.8703350554 
  C9            2.3309112106     -2.9346743200     -0.4736606717 
  O10           0.9162137836     -6.2741217843     -0.3645808403 
  C11           4.3852610833     -1.0321990322      1.1509027651 
  C12           4.8820075058      0.4490120196      1.3097340734 
  C13           5.0642641445      1.1840521954     -0.0297226529 
  C14           5.0805977679     -1.9520607220      2.1163033360 
  C15           5.1786820876     -1.6220461571      3.4963721702 
  C16           5.8323075572     -2.4525592916      4.3934802044 
  C17           6.4081277956     -3.6541268153      3.9252686386 
  C18           6.3156817865     -4.0128180241      2.5592445857 
  C19           5.6544900491     -3.1722510041      1.6794242953 
  O20           7.0708634297     -4.5303473122      4.7317281510 
  H21           0.0022827891      0.7766737126      0.3206143647 
  H22           0.2684282265     -0.0023373738      1.8854847341 
  H23           0.0249961146     -0.9893069211      0.4327710073 
  H24           2.3938435851      0.9293777270      0.8682555180 
  H25           2.1946261332     -0.1193415086     -0.5273773227 
  H26           2.5589684197     -1.0386171769      2.3816504373 
  H27           1.7468640555     -3.1642821528      2.8859947724 
  H28           0.9026704871     -5.3823604843      2.2003622795 
  H29           1.8913676555     -4.4950032316     -1.9058406388 
  H30           2.7178714692     -2.2543497945     -1.2241377246 
  H31           0.5473815315     -6.8638539786      0.3243220216 
  H32           4.6194695152     -1.3612869829      0.1318196649 
  H33           5.8524170443      0.4322680249      1.8178950487 
  H34           4.2059987516      1.0098201306      1.9670465580 
  H35           5.7950514606      0.6643356378     -0.6604419264 
  H36           5.4412030757      2.1974817747      0.1451152271 
  H37           4.1323996551      1.2694242932     -0.5951788562 
  H38           4.7448952130     -0.6954933117      3.8563083272 
  H39           5.9066905215     -2.1819317384      5.4421302262 
  H40           6.7762914549     -4.9381109815      2.2359729085 
  H41           5.5856688251     -3.4455396120      0.6320821135 
  H42           7.1366340215     -4.2510781655      5.6678462038 
   
  principal moments of inertia:
        amu*angstrom^2:     1399.95984     1939.57588     2866.39654
                g*cm^2: 2.32468771E-37 3.22074111E-37 4.75976285E-37
   
  rotational constants:
               cm^(-1):      0.01204151      0.00869140      0.00588112
                   GHz:      0.36099536      0.26056161      0.17631162
   
  nuclear repulsion energy.......    1523.240041290 hartrees
  -------------------------------------------------
 /  end of geometry optimization iteration  17   /
 -------------------------------------------------
   
  Peak memory usage:   4821 Mb
  
  end of program geopt
   
 Time(geopt)  user:       10.6  user+sys:       10.6  wallclock:        1.4
  
  start of program ch
  
  Moments from quantum mechanical wavefunction:
  Dipole Moments  (Debye)
     X=    -0.1448     Y=    -1.6146     Z=     3.5510  Tot=     3.9035
  
  gridpoints used for charge fit        21004
    out of a possible maximum of        22211
  
   Electrostatic potential fitting constrained to reproduce
     total charge:                yes
     dipole moment:               yes
     traceless quadrupole moment: no 
     traceless octapole moment:   no 
  
  Atomic charges from electrostatic potential: 
   
 Atom       C1           C2           C3           C4           C5      
 Charge   -0.42512      0.18938     -0.24410      0.11992     -0.05514
   
 Atom       C6           C7           C8           C9           O10     
 Charge   -0.37531      0.58933     -0.28910     -0.11104     -0.62252
   
 Atom       C11          C12          C13          C14          C15     
 Charge   -0.02741      0.04105     -0.22352      0.10275     -0.05452
   
 Atom       C16          C17          C18          C19          O20     
 Charge   -0.37798      0.58487     -0.27458     -0.11770     -0.62532
   
 Atom       H21          H22          H23          H24          H25     
 Charge    0.12197      0.11738      0.11995      0.04260      0.01811
   
 Atom       H26          H27          H28          H29          H30     
 Charge    0.09378      0.13823      0.19081      0.20355      0.15904
   
 Atom       H31          H32          H33          H34          H35     
 Charge    0.49300      0.06054      0.02716      0.02834      0.07521
   
 Atom       H36          H37          H38          H39          H40     
 Charge    0.08863      0.04339      0.14049      0.19005      0.20599
   
 Atom       H41          H42     
 Charge    0.14079      0.49705
  
  sum of atomic charges:     1.000000
   
 RMS Error   6.48E-04 hartrees
 
  
  Moments from electrostatic potential charges:
  Dipole Moments  (Debye)
     X=    -0.1448     Y=    -1.6146     Z=     3.5510  Tot=     3.9035
  
  Peak memory usage:   3822 Mb
  
  end of program ch
   
 Time(ch)  user:        7.7  user+sys:        7.7  wallclock:        4.0

 Total cpu seconds     user:    6151.207   user+sys:    6151.207
  
 Total elapsed time:    637 seconds

Job Hexestrol_1 completed on n076 at Sun Jan  8 22:35:28 2017
