Job Napthalene_1 started on n078 at Sun Jan  8 22:25:07 2017
jobid: u01-0-5873027f

  +--------------------------------------------------------------------+
  |  Jaguar version 9.3, release  15                                   |
  |                                                                    |
  |  Copyright Schrodinger, Inc.                                       |
  |  All Rights Reserved.                                              |
  |                                                                    |
  |  The following have contributed to Jaguar (listed alphabetically): |
  |  Mike Beachy, Art Bochevarov, Dale Braden, Yixiang Cao,            |
  |  Chris Cortis, Rich Friesner, Bill Goddard, Hod Greeley,           |
  |  Tom Hughes, Leif Jacobson, Jean-Marc Langlois,                    |
  |  Daniel Mainz, Rob Murphy, Dean Philipp,                           |
  |  Tom Pollard, Murco Ringnalda, Mark Watson.                        |
  |                                                                    |
  |  Use of this program should be acknowledged in publications as:    |
  |                                                                    |
  |  Jaguar, version 9.3, Schrodinger, Inc., New York, NY, 2016.       |
  |                                                                    |
  |  A. D. Bochevarov, E. Harder, T. F. Hughes, J. R. Greenwood,       |
  |  D. A. Braden, D. M. Philipp, D. Rinaldo, M. D. Halls,             |
  |  J. Zhang, R. A. Friesner, "Jaguar: A High-Performance Quantum     |
  |  Chemistry Software Program with Strengths in Life and Materials   |
  |  Sciences", Int. J. Quantum Chem., 2013, 113(18), 2110-2142.       |
  +--------------------------------------------------------------------+
  
  start of program pre
  
  Job name: Napthalene_1
  Executables used: /home/applications/Schrodinger_Suites_2016-3/jaguar-v9.3/bin/Linux-x86_64
  Temporary files : /scratch/Schrodinger_Suites/pbeni001/Napthalene_1#u01-0-5873027f
  Maestro file (input):  Napthalene_1.mae
  Maestro file (output): Napthalene_1.01.mae
  
  basis set:             6-31g                           
  net molecular charge:    1
  multiplicity:            2
  
  Using up to  16 threads per process
  
  number of basis functions....          106
  
 Input geometry:
                                   angstroms
  atom               x                 y                 z
  C1            2.4341868000     -0.6632711000     -0.0548420000 
  C2            2.4129180000      0.7305620000     -0.0240972000 
  C3            1.1985944000      1.4083459000      0.0706738000 
  C4           -0.0095172000      0.7020862000      0.0953617000 
  C5           -1.2387137000      1.3675024000      0.0564485000 
  C6           -2.4182395000      0.6503900000     -0.1274736000 
  C7           -2.4058246000     -0.7406737000     -0.0476010000 
  C8           -1.1984334000     -1.4180616000      0.1086339000 
  C9            0.0121868000     -0.7160103000      0.0913513000 
  C10           1.2420226000     -1.3818280000      0.0248313000 
  H11           3.3785886000     -1.1902537000     -0.1538279000 
  H12           3.3406812000      1.2902661000     -0.0972268000 
  H13           1.1978777000      2.4972751000      0.0687772000 
  H14          -1.2814703000      2.4534734000      0.1170602000 
  H15          -3.3433499000      1.1767730000     -0.3422483000 
  H16          -3.3354480000     -1.2969961000     -0.1188899000 
  H17          -1.2050909000     -2.5033190000      0.1937340000 
  H18           1.2749136000     -2.4694155000     -0.0180450000 
   
  principal moments of inertia:
        amu*angstrom^2:      160.53075      404.41724      563.14806
                g*cm^2: 2.66567552E-38 6.71550551E-38 9.35129245E-38
   
  rotational constants:
               cm^(-1):      0.10501184      0.04168375      0.02993463
                   GHz:      3.14817566      1.24964752      0.89741764
   
  Molecular weight:     128.06 amu
   
  Stoichiometry: C10H8
  Molecular Point Group: C1      
  Point Group used: C1
  
 
Number of optimization coordinates:    60
Number of independent coordinates:     60
Number of non-redundant coordinates:   48
Number of frozen coordinates:           0
Number of harmonic constraints:         0
 
Number of geometric degrees of freedom:    48
Maximum geometric degrees of freedom:      48
 " " " " " excluding dummy atoms:          48
 
  nuclear repulsion energy.......     459.979394977 hartrees
 
 Non-default options chosen:
   SCF calculation type: UDFT(b3lyp)                 
   UDFT=Becke_3_Parameter/HF+Slater+Becke88+VWN+LYP (B3LYP)
   Geometry will be optimized in redundant internal coordinates
   Electrostatic potential fit to point charges on atomic centers
   Electrostatic potential fitting constrained to reproduce
     total charge:                yes
     dipole moment:               yes
     traceless quadrupole moment: no 
     traceless octapole moment:   no 
  
 Temporary integer options set:
     73=  2
  
  Peak memory usage:   3786 Mb
  
  end of program pre
   
 Time(pre)  user:        8.1  user+sys:        8.1  wallclock:        2.9
  
  start of program onee
  
  smallest eigenvalue of S:    3.895E-04
  number of canonical orbitals.....          105
  Peak memory usage:   3813 Mb
  
  end of program onee
   
 Time(onee)  user:        3.6  user+sys:        3.6  wallclock:        0.9
  
  start of program hfig
  
  initial wavefunction generated automatically from atomic wavefunctions
  
  -------------------
  Alpha orbital space
  -------------------
 
  Irreducible     Total no   No of occupied orbitals 
  representation  orbitals   Shell_1  Shell_2    ...
  No Symm          105         34
  ------------------------
  Orbital occupation/shell    1.000
 
  ------------------
  Beta orbital space
  ------------------
 
  Irreducible     Total no   No of occupied orbitals 
  representation  orbitals   Shell_1  Shell_2    ...
  No Symm          105         33
  ------------------------
  Orbital occupation/shell    1.000
 
  
  
    Unrestricted Spin Properties ...
    Sz*(Sz+1) ..............     0.750
    <S**2> of initial guess      0.750
  
  
  Peak memory usage:   3724 Mb
  
  end of program hfig
   
 Time(hfig)  user:        3.8  user+sys:        3.8  wallclock:        0.9
  
  start of program probe
  
  Peak memory usage:   3714 Mb
  
  end of program probe
   
 Time(probe)  user:        2.4  user+sys:        2.4  wallclock:        0.8
  
  start of program grid
  
   grid     grid set  grid #  grid sym
  ------    --------  ------  --------
  coarse        0        0        1
  medium        2        1        1
  fine          0        0        1
  ultrafine     4        2        1
  charge       -1        3        1
  gradient      4        2        1
  density       0        0        1
  DFT-fine    -11        4        1
  DFT-med.    -10        5        1
  DFT-grad    -12        6        1
  DFT-der2      0        0        1
  DFT-cphf      0        0        1
  LMP2-enrg     4        2        1
  LMP2-grad     2        1        1
  DFT-cphf2     0        0        1
  PBF-dens      0        0        1
  plotting      0        0        1
  Rel-grad    -17        0        1
  
  number of gridpoints: 
     atom        C1       C2       C3       C4       C5       C6       C7
  grid # 1       97       97       97      101       97       97       97
  grid # 2      334      334      338      365      337      333      334
  grid # 3      229      229      232      251      231      226      228
  grid # 4     4304     4304     4304     4304     4304     4304     4304
  grid # 5     1192     1192     1192     1192     1192     1192     1192
  grid # 6     5226     5226     5226     5226     5226     5226     5226
   
  number of gridpoints: 
     atom        C8       C9      C10      H11      H12      H13      H14
  grid # 1       97      101       97      118      118      118      116
  grid # 2      337      366      341      451      451      445      443
  grid # 3      231      246      233     1329     1330     1145     1149
  grid # 4     4304     4304     4304     4304     4304     4304     4304
  grid # 5     1192     1192     1192     1192     1192     1192     1192
  grid # 6     5226     5226     5226     5226     5226     5226     5226
   
  number of gridpoints: 
     atom       H15      H16      H17      H18    total
  grid # 1      118      118      116      118     1918
  grid # 2      451      452      444      445     7001
  grid # 3     1341     1339     1156     1147    12272
  grid # 4     4304     4304     4304     4304    77472
  grid # 5     1192     1192     1192     1192    21456
  grid # 6     5226     5226     5226     5226    94068
   
  Peak memory usage:   3764 Mb
  
  end of program grid
   
 Time(grid)  user:        9.7  user+sys:        9.7  wallclock:        1.3
  
  start of program rwr
  
  Peak memory usage:   3722 Mb
  
  end of program rwr
   
 Time(rwr)  user:       25.4  user+sys:       25.4  wallclock:        2.3
  
  start of program scf
  
 number of electrons..........         67
 number of alpha electrons....         34
 number of beta electrons.....         33
 number of alpha orbitals.....        105
 number of beta orbitals......        105
 number of alpha occupied orb..        34
 number of alpha virtual orb...        71
 number of beta occupied orb...        33
 number of beta virtual orb....        72
 SCF type: UDFT=Becke_3_Parameter/HF+Slater+Becke88+VWN+LYP (B3LYP)
 Energy computed with NOPS off.
  
       i  u  d  i  g                   
       t  p  i  c  r                                 RMS    maximum
       e  d  i  u  i                       energy  density   DIIS  
       r  t  s  t  d       total energy    change  change    error 
  
etot    1  N  N  5  M    -384.16611549114           1.0E-02  2.4E-01
etot    2  Y  Y  6  M    -385.37728417667  1.2E+00  9.4E-03  7.2E-02
etot    3  Y  Y  6  M    -385.43042430563  5.3E-02  4.8E-03  6.5E-02
etot    4  N  Y  2  U    -385.50189508799  7.1E-02  3.1E-03  2.7E-02
etot    5  Y  Y  6  M    -385.51982863221  1.8E-02  1.4E-03  1.3E-02
etot    6  N  Y  2  U    -385.52055168040  7.2E-04  9.9E-04  4.6E-03
etot    7  Y  Y  6  M    -385.52070845222  1.6E-04  2.4E-04  2.0E-03
etot    8  Y  Y  6  M    -385.52083361842  1.3E-04  5.9E-05  1.3E-03
etot    9  Y  Y  6  M    -385.52086155541  2.8E-05  1.3E-05  8.7E-05
etot   10  N  Y  2  U    -385.52095091703  8.9E-05  7.1E-06  7.3E-05
etot   11  N  Y  2  U    -385.52095098046  6.3E-08  5.3E-06  3.9E-05
etot   12  N  Y  2  U    -385.52095100091  2.0E-08  3.1E-06  2.2E-05
etot   13  N  N  2  U    -385.52095101649  1.6E-08  0.0E+00  0.0E+00
  
  
 Energy components, in hartrees:
   (A)  Nuclear repulsion............     459.97939497708
   (E)  Total one-electron terms.....   -1417.42807793918
   (I)  Total two-electron terms.....     571.92773194561
   (L)  Electronic energy............    -845.50034599357  (E+I)
   (N)  Total energy.................    -385.52095101649  (A+L)
   (O)  Gas phase energy.............    -385.52095101649
  
                                 Total             Coulomb       Exchange+Corr.
 Total two-electron terms     571.92773194561     628.93485339635     -57.00712145074
   Hamiltonian  1........     298.17047671359     318.55444694140     -20.38397022781
   Hamiltonian  2........     290.34281658580     310.38040645495     -20.03758986915
  
 SCFE: SCF energy: UDFT(b3lyp)      -385.52095101649 hartrees   iterations:  13
  
 
 Alpha HOMO energy:    -0.41656
 Alpha LUMO energy:    -0.24169
 
  Alpha Orbital energies (hartrees): 
   -10.39581   -10.39557   -10.39530   -10.39518   -10.38320   -10.38280
   -10.38023   -10.37971   -10.37951   -10.37916    -1.08249    -1.02500
    -0.98019    -0.93903    -0.91950    -0.82378    -0.80632    -0.79379
    -0.70888    -0.69766    -0.68686    -0.63946    -0.63600    -0.61327
    -0.61295    -0.59338    -0.58217    -0.56018    -0.52875    -0.52529
    -0.51860    -0.48969    -0.43492    -0.41656    -0.24169    -0.18870
    -0.16373    -0.09241    -0.06276    -0.04509    -0.04198     0.00492
     0.00757     0.01125
 
 
 Beta HOMO energy:    -0.43370
 Beta LUMO energy:    -0.34931
 
  Beta Orbital energies (hartrees): 
   -10.39210   -10.39184   -10.39161   -10.39152   -10.38418   -10.38379
   -10.37960   -10.37911   -10.37895   -10.37858    -1.07793    -1.01836
    -0.97171    -0.93791    -0.90793    -0.81906    -0.80294    -0.78939
    -0.70589    -0.69362    -0.68453    -0.63682    -0.63527    -0.61052
    -0.61019    -0.58229    -0.57906    -0.55857    -0.52517    -0.52222
    -0.50313    -0.46282    -0.43370    -0.34931    -0.21595    -0.18149
    -0.14495    -0.07715    -0.06120    -0.04333    -0.04026     0.00903
     0.01023
 
  
  
    Unrestricted Spin Properties ...
    Sz*(Sz+1)      0.750
    <S**2> ...     0.761
  
  
  Peak memory usage:   5758 Mb
  
  end of program scf
   
 Time(scf)  user:       75.8  user+sys:       75.8  wallclock:        6.4
  
  start of program der1a
  
  Peak memory usage:   3819 Mb
  
  end of program der1a
   
 Time(der1a)  user:        4.8  user+sys:        4.8  wallclock:        0.9
  
  start of program rwr
  
  Peak memory usage:   3722 Mb
  
  end of program rwr
   
 Time(rwr)  user:       14.9  user+sys:       14.9  wallclock:        1.9
  
  start of program der1b
  
   
  forces (hartrees/bohr) : total     
   
 atom  label           x              y              z
 ---- --------   -------------  -------------  -------------
    1 C1          1.465657E-02   3.654263E-03  -7.650123E-04
    2 C2          1.487865E-02  -2.992354E-03  -1.165702E-03
    3 C3          5.317683E-03   1.545631E-02  -1.359475E-03
    4 C4          9.593833E-04   3.408790E-03   3.604910E-03
    5 C5         -4.951850E-03   1.643039E-02  -4.274007E-03
    6 C6         -1.659443E-02  -3.325657E-03  -2.451856E-04
    7 C7         -1.523116E-02   2.614531E-03  -1.520862E-03
    8 C8         -5.272020E-03  -1.617423E-02  -1.392423E-03
    9 C9          1.912642E-03  -3.757544E-03   2.184209E-03
   10 C10         4.754893E-03  -1.524473E-02  -1.396975E-03
   11 H11        -1.319182E-03   7.992400E-04   9.239088E-04
   12 H12        -1.235619E-03  -9.364780E-04   1.024494E-03
   13 H13        -1.675626E-03  -2.366855E-03   1.236453E-03
   14 H14         2.150708E-03  -1.832091E-03  -2.055860E-03
   15 H15         1.252721E-04  -6.487095E-04   4.807138E-03
   16 H16         1.253444E-03   6.387892E-04  -1.087441E-04
   17 H17         1.849285E-03   2.054911E-03  -1.273647E-03
   18 H18        -1.634750E-03   2.224393E-03   1.940296E-03
 -------------   -------------  -------------  -------------
     total       -5.610454E-05   2.967622E-06   1.635158E-04
   
  Peak memory usage:   5728 Mb
  
  end of program der1b
   
 Time(der1b)  user:       21.3  user+sys:       21.3  wallclock:        2.2
  
  start of program geopt
  
 ----------------------------------------------------------------------------
  Geometry optimization step  1
  Total energy:      -385.52095101649 hartrees
 ----------------------------------------------------------------------------
  
  gradient maximum:        1.9486E-02 .  (  4.5000E-04 )
  gradient rms:            7.1712E-03 .  (  3.0000E-04 )
  displacement maximum:    1.1385E-01 .  (  1.8000E-03 )
  displacement rms:        3.5981E-02 .  (  1.2000E-03 )
  
  predicted energy change:  -5.7000E-03
  step size:     0.27871
  trust radius:  0.30000
  
  molecular structure not yet converged...
  
  center of mass moved by:
     x:     3.2602E-04     y:     3.7530E-04     z:    -1.7104E-02
  
  new geometry: 
                                   angstroms
  atom               x                 y                 z
  C1            2.4833614460     -0.6660940119     -0.0118846274 
  C2            2.4616546570      0.7325720441     -0.0065645004 
  C3            1.2271883314      1.4223779475      0.0439706878 
  C4           -0.0081838113      0.7133864330      0.0641670665 
  C5           -1.2655314865      1.3834304608      0.0284701137 
  C6           -2.4765256812      0.6546359181     -0.0660008638 
  C7           -2.4556642672     -0.7443074968     -0.0315942433 
  C8           -1.2227206875     -1.4344860128      0.0542065241 
  C9            0.0145754629     -0.7268669284      0.0645918846 
  C10           1.2713110102     -1.3952787994      0.0389874029 
  H11           3.4289674721     -1.1928411989     -0.0624618534 
  H12           3.3902793830      1.2890211909     -0.0535863295 
  H13           1.2194416858      2.5076826360      0.0342956556 
  H14          -1.2936883843      2.4683411611      0.0483311831 
  H15          -3.4176488606      1.1815792263     -0.1719724660 
  H16          -3.3847741319     -1.3001754662     -0.0768648836 
  H17          -1.2176646018     -2.5194441419      0.0836734697 
  H18           1.2983986841     -2.4802626231      0.0257740638 
   
  nuclear repulsion energy.......     453.661227475 hartrees
  -------------------------------------------------
 /  end of geometry optimization iteration   1   /
 -------------------------------------------------
   
  Peak memory usage:   4724 Mb
  
  end of program geopt
   
 Time(geopt)  user:        5.4  user+sys:        5.4  wallclock:        0.8
  
  start of program onee
  
  smallest eigenvalue of S:    4.435E-04
  number of canonical orbitals.....          105
  Peak memory usage:   3812 Mb
  
  end of program onee
   
 Time(onee)  user:        2.8  user+sys:        2.8  wallclock:        0.8
  
  start of program probe
  
  Peak memory usage:   3719 Mb
  
  end of program probe
   
 Time(probe)  user:        2.6  user+sys:        2.6  wallclock:        0.7
  
  start of program grid
  
   grid     grid set  grid #  grid sym
  ------    --------  ------  --------
  coarse        0        0        1
  medium        2        1        1
  fine          0        0        1
  ultrafine     4        2        1
  charge       -1        3        1
  gradient      4        2        1
  density       0        0        1
  DFT-fine    -11        4        1
  DFT-med.    -10        5        1
  DFT-grad    -12        6        1
  DFT-der2      0        0        1
  DFT-cphf      0        0        1
  LMP2-enrg     4        2        1
  LMP2-grad     2        1        1
  DFT-cphf2     0        0        1
  PBF-dens      0        0        1
  plotting      0        0        1
  Rel-grad    -17        0        1
  
  number of gridpoints: 
     atom        C1       C2       C3       C4       C5       C6       C7
  grid # 1       97       97       97      101       97       97       97
  grid # 2      339      339      341      369      340      339      339
  grid # 3      232      231      234      256      234      231      231
  grid # 4     4304     4304     4304     4304     4304     4304     4304
  grid # 5     1192     1192     1192     1192     1192     1192     1192
  grid # 6     5226     5226     5226     5226     5226     5226     5226
   
  number of gridpoints: 
     atom        C8       C9      C10      H11      H12      H13      H14
  grid # 1       97      101       97      118      118      118      118
  grid # 2      341      366      341      451      451      446      447
  grid # 3      234      251      234     1335     1335     1153     1158
  grid # 4     4304     4304     4304     4304     4304     4304     4304
  grid # 5     1192     1192     1192     1192     1192     1192     1192
  grid # 6     5226     5226     5226     5226     5226     5226     5226
   
  number of gridpoints: 
     atom       H15      H16      H17      H18    total
  grid # 1      118      118      118      118     1922
  grid # 2      451      451      446      446     7043
  grid # 3     1339     1337     1153     1159    12337
  grid # 4     4304     4304     4304     4304    77472
  grid # 5     1192     1192     1192     1192    21456
  grid # 6     5226     5226     5226     5226    94068
   
  Peak memory usage:   3765 Mb
  
  end of program grid
   
 Time(grid)  user:       15.3  user+sys:       15.3  wallclock:        1.8
  
  start of program rwr
  
  Peak memory usage:   3722 Mb
  
  end of program rwr
   
 Time(rwr)  user:       26.3  user+sys:       26.3  wallclock:        2.4
  
  start of program scf
  
 Energy computed with NOPS off.
  
       i  u  d  i  g                   
       t  p  i  c  r                                 RMS    maximum
       e  d  i  u  i                       energy  density   DIIS  
       r  t  s  t  d       total energy    change  change    error 
  
etot    1  N  N  2  U    -385.51805235418           1.1E-03  1.0E-02
etot    2  Y  Y  6  M    -385.52505902244  7.0E-03  4.2E-04  3.6E-03
etot    3  N  Y  2  U    -385.52506641697  7.4E-06  2.8E-04  5.8E-03
etot    4  Y  Y  6  M    -385.52549865123  4.3E-04  5.3E-05  1.0E-03
etot    5  Y  Y  6  M    -385.52550681565  8.2E-06  1.8E-05  1.9E-04
etot    6  N  Y  2  U    -385.52557374592  6.7E-05  1.2E-05  2.1E-04
etot    7  N  Y  2  U    -385.52557441100  6.7E-07  8.2E-06  4.9E-05
etot    8  N  Y  2  U    -385.52557448720  7.6E-08  5.5E-06  2.3E-05
etot    9  N  Y  2  U    -385.52557451799  3.1E-08  4.4E-07  9.0E-06
etot   10  N  N  2  U    -385.52557452069  2.7E-09  0.0E+00  0.0E+00
  
  
 Energy components, in hartrees:
   (A)  Nuclear repulsion............     453.66122747542
   (E)  Total one-electron terms.....   -1404.98000912415
   (I)  Total two-electron terms.....     565.79320712805
   (L)  Electronic energy............    -839.18680199610  (E+I)
   (N)  Total energy.................    -385.52557452069  (A+L)
   (O)  Gas phase energy.............    -385.52557452069
  
                                 Total             Coulomb       Exchange+Corr.
 Total two-electron terms     565.79320712805     622.68336611425     -56.89015898620
   Hamiltonian  1........     295.04300614058     315.38301652255     -20.34001038197
   Hamiltonian  2........     287.30425348938     307.30034959170     -19.99609610232
  
 SCFE: SCF energy: UDFT(b3lyp)      -385.52557452069 hartrees   iterations:  10
  
 
 Alpha HOMO energy:    -0.41361
 Alpha LUMO energy:    -0.24597
 
  Alpha Orbital energies (hartrees): 
   -10.39991   -10.39976   -10.39936   -10.39931   -10.38936   -10.38903
   -10.38316   -10.38267   -10.38260   -10.38219    -1.06897    -1.01594
    -0.97018    -0.93499    -0.91285    -0.82277    -0.80021    -0.78900
    -0.70329    -0.69891    -0.68248    -0.63806    -0.63177    -0.61106
    -0.61008    -0.58298    -0.58133    -0.56165    -0.52725    -0.52173
    -0.51775    -0.48334    -0.43337    -0.41361    -0.24597    -0.19037
    -0.16703    -0.09699    -0.06194    -0.04390    -0.03920     0.00082
     0.00283     0.01060
 
 
 Beta HOMO energy:    -0.43276
 Beta LUMO energy:    -0.34647
 
  Beta Orbital energies (hartrees): 
   -10.39615   -10.39598   -10.39561   -10.39558   -10.39041   -10.39008
   -10.38262   -10.38213   -10.38207   -10.38165    -1.06441    -1.00949
    -0.96160    -0.93416    -0.90126    -0.81770    -0.79708    -0.78452
    -0.70049    -0.69490    -0.68026    -0.63552    -0.63105    -0.60872
    -0.60702    -0.57906    -0.57072    -0.56030    -0.52470    -0.52045
    -0.49988    -0.45623    -0.43276    -0.34647    -0.21969    -0.18376
    -0.14771    -0.08158    -0.06073    -0.04218    -0.03748     0.00596
     0.00958
 
  
  
    Unrestricted Spin Properties ...
    Sz*(Sz+1)      0.750
    <S**2> ...     0.762
  
  
  Peak memory usage:   5758 Mb
  
  end of program scf
   
 Time(scf)  user:       68.6  user+sys:       68.6  wallclock:        5.7
  
  start of program der1a
  
  Peak memory usage:   3819 Mb
  
  end of program der1a
   
 Time(der1a)  user:        3.5  user+sys:        3.5  wallclock:        0.7
  
  start of program rwr
  
  Peak memory usage:   3723 Mb
  
  end of program rwr
   
 Time(rwr)  user:       20.1  user+sys:       20.1  wallclock:        2.2
  
  start of program der1b
  
   
  forces (hartrees/bohr) : total     
   
 atom  label           x              y              z
 ---- --------   -------------  -------------  -------------
    1 C1         -4.527995E-03   1.459213E-03   6.919789E-04
    2 C2         -4.514473E-03  -1.708514E-03   2.203871E-04
    3 C3         -1.082590E-03  -3.465915E-03  -1.049475E-03
    4 C4         -4.609646E-04   1.207167E-03  -4.109035E-04
    5 C5          8.522441E-04  -4.088289E-03  -2.233780E-03
    6 C6          5.560848E-03  -1.651521E-03   1.426289E-03
    7 C7          4.608595E-03   2.135327E-03   3.998921E-04
    8 C8          1.099489E-03   3.780543E-03  -1.549996E-03
    9 C9         -7.396629E-04  -5.858314E-04   3.925645E-04
   10 C10        -8.964374E-04   3.191536E-03  -1.311613E-03
   11 H11        -3.311700E-04  -5.933801E-04   4.871273E-04
   12 H12        -3.497597E-04   5.604699E-04   5.390435E-04
   13 H13        -2.604064E-04   5.562357E-05   6.487295E-04
   14 H14         3.679906E-04   1.962173E-05  -7.870202E-04
   15 H15         2.464502E-04   4.816009E-04   1.993342E-03
   16 H16         4.514440E-04  -6.613165E-04  -3.532043E-05
   17 H17         3.170531E-04  -6.169327E-05  -2.268924E-04
   18 H18        -2.102899E-04  -5.960813E-05   7.612242E-04
 -------------   -------------  -------------  -------------
     total        1.303656E-04   1.503365E-05  -4.442130E-05
   
  Peak memory usage:   5729 Mb
  
  end of program der1b
   
 Time(der1b)  user:       16.1  user+sys:       16.1  wallclock:        1.8
  
  start of program geopt
  
 ----------------------------------------------------------------------------
  Geometry optimization step  2
  Total energy:      -385.52557452069 hartrees
 ----------------------------------------------------------------------------
  
  energy change:          -4.6235E-03 .  (  5.0000E-05 )
  gradient maximum:        7.1162E-03 .  (  4.5000E-04 )
  gradient rms:            2.5596E-03 .  (  3.0000E-04 )
  displacement maximum:    7.2989E-02 .  (  1.8000E-03 )
  displacement rms:        2.1466E-02 .  (  1.2000E-03 )
  
  predicted energy change:  -7.9803E-04
  step size:     0.16628
  trust radius:  0.30000
  
  molecular structure not yet converged...
  
  center of mass moved by:
     x:    -4.8613E-05     y:     1.7069E-04     z:    -1.2718E-02
  
  new geometry: 
                                   angstroms
  atom               x                 y                 z
  C1            2.4724340486     -0.6653704568      0.0185272593 
  C2            2.4506070864      0.7305780246      0.0118681218 
  C3            1.2204504215      1.4206137883      0.0264939545 
  C4           -0.0082788705      0.7127278896      0.0372136550 
  C5           -1.2584524186      1.3816374276      0.0057627974 
  C6           -2.4667049528      0.6535061263     -0.0228758002 
  C7           -2.4446027338     -0.7424501799     -0.0137641471 
  C8           -1.2149974034     -1.4325582364      0.0215654689 
  C9            0.0144023730     -0.7253482668      0.0419604233 
  C10           1.2645649807     -1.3938174835      0.0404903968 
  H11           3.4172426664     -1.1951760180      0.0024918236 
  H12           3.3783809195      1.2893995122     -0.0112224905 
  H13           1.2100746164      2.5055777387      0.0118250546 
  H14          -1.2818901964      2.4664998942     -0.0047937483 
  H15          -3.4109350680      1.1834716037     -0.0584056645 
  H16          -3.3724282695     -1.3013096448     -0.0373938623 
  H17          -1.2055517558     -2.5176601273      0.0189160126 
  H18           1.2889236951     -2.4786772268      0.0380246095 
   
  nuclear repulsion energy.......     455.162690213 hartrees
  -------------------------------------------------
 /  end of geometry optimization iteration   2   /
 -------------------------------------------------
   
  Peak memory usage:   4724 Mb
  
  end of program geopt
   
 Time(geopt)  user:        5.2  user+sys:        5.2  wallclock:        0.5
  
  start of program onee
  
  smallest eigenvalue of S:    4.242E-04
  number of canonical orbitals.....          105
  Peak memory usage:   3816 Mb
  
  end of program onee
   
 Time(onee)  user:        2.2  user+sys:        2.2  wallclock:        0.7
  
  start of program probe
  
  Peak memory usage:   3721 Mb
  
  end of program probe
   
 Time(probe)  user:        1.9  user+sys:        1.9  wallclock:        0.7
  
  start of program grid
  
   grid     grid set  grid #  grid sym
  ------    --------  ------  --------
  coarse        0        0        1
  medium        2        1        1
  fine          0        0        1
  ultrafine     4        2        1
  charge       -1        3        1
  gradient      4        2        1
  density       0        0        1
  DFT-fine    -11        4        1
  DFT-med.    -10        5        1
  DFT-grad    -12        6        1
  DFT-der2      0        0        1
  DFT-cphf      0        0        1
  LMP2-enrg     4        2        1
  LMP2-grad     2        1        1
  DFT-cphf2     0        0        1
  PBF-dens      0        0        1
  plotting      0        0        1
  Rel-grad    -17        0        1
  
  number of gridpoints: 
     atom        C1       C2       C3       C4       C5       C6       C7
  grid # 1       97       97       97      101       97       97       97
  grid # 2      339      339      338      368      338      339      339
  grid # 3      231      231      230      250      232      231      231
  grid # 4     4304     4304     4304     4304     4304     4304     4304
  grid # 5     1192     1192     1192     1192     1192     1192     1192
  grid # 6     5226     5226     5226     5226     5226     5226     5226
   
  number of gridpoints: 
     atom        C8       C9      C10      H11      H12      H13      H14
  grid # 1       97      101       97      118      118      118      118
  grid # 2      338      368      338      451      451      446      446
  grid # 3      231      253      230     1335     1335     1151     1150
  grid # 4     4304     4304     4304     4304     4304     4304     4304
  grid # 5     1192     1192     1192     1192     1192     1192     1192
  grid # 6     5226     5226     5226     5226     5226     5226     5226
   
  number of gridpoints: 
     atom       H15      H16      H17      H18    total
  grid # 1      118      118      118      118     1922
  grid # 2      451      451      446      446     7032
  grid # 3     1335     1336     1152     1151    12295
  grid # 4     4304     4304     4304     4304    77472
  grid # 5     1192     1192     1192     1192    21456
  grid # 6     5226     5226     5226     5226    94068
   
  Peak memory usage:   3765 Mb
  
  end of program grid
   
 Time(grid)  user:       12.4  user+sys:       12.4  wallclock:        1.4
  
  start of program rwr
  
  Peak memory usage:   3722 Mb
  
  end of program rwr
   
 Time(rwr)  user:       22.8  user+sys:       22.8  wallclock:        2.2
  
  start of program scf
  
 Energy computed with NOPS off.
  
       i  u  d  i  g                   
       t  p  i  c  r                                 RMS    maximum
       e  d  i  u  i                       energy  density   DIIS  
       r  t  s  t  d       total energy    change  change    error 
  
etot    1  N  N  2  U    -385.52346870579           6.1E-04  7.8E-03
etot    2  Y  Y  6  M    -385.52641503859  2.9E-03  1.3E-04  1.3E-03
etot    3  Y  Y  6  M    -385.52640960983 -5.4E-06  8.0E-05  1.4E-03
etot    4  N  Y  2  U    -385.52644496877  3.5E-05  2.5E-05  4.6E-04
etot    5  N  Y  2  U    -385.52644854268  3.6E-06  1.1E-05  1.3E-04
etot    6  N  Y  2  U    -385.52644874822  2.1E-07  4.7E-06  1.0E-04
etot    7  N  N  2  U    -385.52644887647  1.3E-07  0.0E+00  0.0E+00
  
  
 Energy components, in hartrees:
   (A)  Nuclear repulsion............     455.16269021295
   (E)  Total one-electron terms.....   -1407.93474223637
   (I)  Total two-electron terms.....     567.24560314695
   (L)  Electronic energy............    -840.68913908942  (E+I)
   (N)  Total energy.................    -385.52644887647  (A+L)
   (O)  Gas phase energy.............    -385.52644887647
  
                                 Total             Coulomb       Exchange+Corr.
 Total two-electron terms     567.24560314695     624.16693911689     -56.92133596993
   Hamiltonian  1........     295.78317158193     316.13476820615     -20.35159662421
   Hamiltonian  2........     288.02488652760     308.03217091074     -20.00728438315
  
 SCFE: SCF energy: UDFT(b3lyp)      -385.52644887647 hartrees   iterations:   7
  
 
 Alpha HOMO energy:    -0.41445
 Alpha LUMO energy:    -0.24518
 
  Alpha Orbital energies (hartrees): 
   -10.39863   -10.39859   -10.39844   -10.39841   -10.38778   -10.38747
   -10.38219   -10.38202   -10.38171   -10.38157    -1.07196    -1.01815
    -0.97295    -0.93597    -0.91453    -0.82325    -0.80191    -0.79018
    -0.70472    -0.69900    -0.68356    -0.63889    -0.63304    -0.61122
    -0.61115    -0.58482    -0.58145    -0.56223    -0.52671    -0.52204
    -0.51978    -0.48534    -0.43395    -0.41445    -0.24518    -0.18999
    -0.16546    -0.09523    -0.06235    -0.04394    -0.04016     0.00413
     0.00466     0.01067
 
 
 Beta HOMO energy:    -0.43324
 Beta LUMO energy:    -0.34725
 
  Beta Orbital energies (hartrees): 
   -10.39489   -10.39484   -10.39470   -10.39468   -10.38882   -10.38850
   -10.38165   -10.38148   -10.38116   -10.38101    -1.06738    -1.01168
    -0.96440    -0.93509    -0.90294    -0.81825    -0.79871    -0.78575
    -0.70188    -0.69498    -0.68129    -0.63634    -0.63234    -0.60878
    -0.60815    -0.57890    -0.57272    -0.56098    -0.52424    -0.52118
    -0.50136    -0.45830    -0.43324    -0.34725    -0.21895    -0.18324
    -0.14623    -0.07973    -0.06115    -0.04224    -0.03846     0.00711
     0.01228
 
  
  
    Unrestricted Spin Properties ...
    Sz*(Sz+1)      0.750
    <S**2> ...     0.762
  
  
  Peak memory usage:   5757 Mb
  
  end of program scf
   
 Time(scf)  user:       50.2  user+sys:       50.2  wallclock:        4.5
  
  start of program der1a
  
  Peak memory usage:   3817 Mb
  
  end of program der1a
   
 Time(der1a)  user:        3.0  user+sys:        3.0  wallclock:        0.8
  
  start of program rwr
  
  Peak memory usage:   3722 Mb
  
  end of program rwr
   
 Time(rwr)  user:       20.1  user+sys:       20.1  wallclock:        2.2
  
  start of program der1b
  
   
  forces (hartrees/bohr) : total     
   
 atom  label           x              y              z
 ---- --------   -------------  -------------  -------------
    1 C1         -5.441844E-04   3.129670E-06   4.288043E-04
    2 C2         -5.599469E-04  -6.461768E-05   1.178310E-04
    3 C3         -1.917948E-04  -8.154199E-04  -5.947966E-04
    4 C4         -1.210883E-04  -4.847596E-04  -1.150287E-03
    5 C5          1.088999E-04  -8.947128E-04   1.911105E-04
    6 C6          9.632916E-04   5.364145E-05  -4.984935E-05
    7 C7          3.646824E-04   1.485475E-04   2.787894E-04
    8 C8          4.125128E-04   7.488142E-04  -4.155262E-04
    9 C9         -4.770515E-04   7.114307E-04   2.530263E-05
   10 C10        -3.700707E-05   6.531591E-04  -9.215292E-04
   11 H11         2.023379E-04  -1.080592E-04   2.022365E-04
   12 H12         1.942951E-04   1.354000E-04   2.723006E-04
   13 H13         1.167024E-04   2.159906E-04   4.032605E-04
   14 H14        -1.215820E-04   1.676730E-04   1.133677E-04
   15 H15        -1.771486E-04   6.478682E-05   3.175101E-04
   16 H16        -1.227739E-04  -1.427248E-04   5.105355E-05
   17 H17        -6.673330E-05  -1.915781E-04   3.293799E-04
   18 H18         1.031728E-04  -1.993589E-04   3.628900E-04
 -------------   -------------  -------------  -------------
     total        4.658423E-05   1.342120E-06  -3.815123E-05
   
  Peak memory usage:   5729 Mb
  
  end of program der1b
   
 Time(der1b)  user:       17.2  user+sys:       17.2  wallclock:        1.9
  
  start of program geopt
  
 ----------------------------------------------------------------------------
  Geometry optimization step  3
  Total energy:      -385.52644887647 hartrees
 ----------------------------------------------------------------------------
  
  energy change:          -8.7436E-04 .  (  5.0000E-05 )
  gradient maximum:        2.2203E-03 .  (  4.5000E-04 )
  gradient rms:            5.1344E-04 .  (  3.0000E-04 )
  displacement maximum:    2.3360E-02 .  (  1.8000E-03 )
  displacement rms:        5.9281E-03 .  (  1.2000E-03 )
  
  predicted energy change:  -5.7859E-05
  step size:     0.04592
  trust radius:  0.30000
  
  molecular structure not yet converged...
  
  center of mass moved by:
     x:    -6.2503E-05     y:     4.0409E-05     z:    -8.3668E-03
  
  new geometry: 
                                   angstroms
  atom               x                 y                 z
  C1            2.4716730923     -0.6652866578      0.0306462776 
  C2            2.4498501490      0.7301815983      0.0221615431 
  C3            1.2198828211      1.4194938994      0.0181954187 
  C4           -0.0084194070      0.7121379184      0.0223849827 
  C5           -1.2578901165      1.3806369196      0.0004570165 
  C6           -2.4656101609      0.6532497544     -0.0093598221 
  C7           -2.4438744885     -0.7421844208     -0.0038410990 
  C8           -1.2141599439     -1.4314930372      0.0151095405 
  C9            0.0140678957     -0.7243333066      0.0292923763 
  C10           1.2638481067     -1.3928487434      0.0348890655 
  H11           3.4167422140     -1.1955634980      0.0314685761 
  H12           3.3779057077      1.2896397898      0.0151966779 
  H13           1.2100626920      2.5047715283      0.0048832673 
  H14          -1.2817667153      2.4657052924     -0.0113779290 
  H15          -3.4104210100      1.1836697164     -0.0249167440 
  H16          -3.3718558406     -1.3016731759     -0.0159183869 
  H17          -1.2044803973     -2.5168578159      0.0124081700 
  H18           1.2882798673     -2.4779863138      0.0346992763 
   
  nuclear repulsion energy.......     455.376260194 hartrees
  -------------------------------------------------
 /  end of geometry optimization iteration   3   /
 -------------------------------------------------
   
  Peak memory usage:   4724 Mb
  
  end of program geopt
   
 Time(geopt)  user:        5.1  user+sys:        5.1  wallclock:        0.5
  
  start of program onee
  
  smallest eigenvalue of S:    4.204E-04
  number of canonical orbitals.....          105
  Peak memory usage:   3813 Mb
  
  end of program onee
   
 Time(onee)  user:        3.4  user+sys:        3.4  wallclock:        0.8
  
  start of program probe
  
  Peak memory usage:   3714 Mb
  
  end of program probe
   
 Time(probe)  user:        1.8  user+sys:        1.8  wallclock:        0.7
  
  start of program grid
  
   grid     grid set  grid #  grid sym
  ------    --------  ------  --------
  coarse        0        0        1
  medium        2        1        1
  fine          0        0        1
  ultrafine     4        2        1
  charge       -1        3        1
  gradient      4        2        1
  density       0        0        1
  DFT-fine    -11        4        1
  DFT-med.    -10        5        1
  DFT-grad    -12        6        1
  DFT-der2      0        0        1
  DFT-cphf      0        0        1
  LMP2-enrg     4        2        1
  LMP2-grad     2        1        1
  DFT-cphf2     0        0        1
  PBF-dens      0        0        1
  plotting      0        0        1
  Rel-grad    -17        0        1
  
  number of gridpoints: 
     atom        C1       C2       C3       C4       C5       C6       C7
  grid # 1       97       97       97      101       97       97       97
  grid # 2      339      339      338      368      338      339      339
  grid # 3      231      231      232      254      233      231      231
  grid # 4     4304     4304     4304     4304     4304     4304     4304
  grid # 5     1192     1192     1192     1192     1192     1192     1192
  grid # 6     5226     5226     5226     5226     5226     5226     5226
   
  number of gridpoints: 
     atom        C8       C9      C10      H11      H12      H13      H14
  grid # 1       97      101       97      118      118      118      118
  grid # 2      338      368      338      451      451      446      446
  grid # 3      232      254      232     1335     1336     1159     1156
  grid # 4     4304     4304     4304     4304     4304     4304     4304
  grid # 5     1192     1192     1192     1192     1192     1192     1192
  grid # 6     5226     5226     5226     5226     5226     5226     5226
   
  number of gridpoints: 
     atom       H15      H16      H17      H18    total
  grid # 1      118      118      118      118     1922
  grid # 2      451      451      446      446     7032
  grid # 3     1334     1335     1156     1159    12331
  grid # 4     4304     4304     4304     4304    77472
  grid # 5     1192     1192     1192     1192    21456
  grid # 6     5226     5226     5226     5226    94068
   
  Peak memory usage:   3765 Mb
  
  end of program grid
   
 Time(grid)  user:        9.4  user+sys:        9.4  wallclock:        1.4
  
  start of program rwr
  
  Peak memory usage:   3722 Mb
  
  end of program rwr
   
 Time(rwr)  user:       24.8  user+sys:       24.8  wallclock:        2.2
  
  start of program scf
  
 Energy computed with NOPS off.
  
       i  u  d  i  g                   
       t  p  i  c  r                                 RMS    maximum
       e  d  i  u  i                       energy  density   DIIS  
       r  t  s  t  d       total energy    change  change    error 
  
etot    1  N  N  2  U    -385.52611262857           2.2E-04  3.4E-03
etot    2  Y  Y  6  M    -385.52651463407  4.0E-04  4.4E-05  5.8E-04
etot    3  N  Y  2  U    -385.52651616507  1.5E-06  2.5E-05  3.8E-04
etot    4  N  Y  2  U    -385.52651899910  2.8E-06  9.4E-06  1.8E-04
etot    5  N  Y  2  U    -385.52651942748  4.3E-07  3.6E-06  6.7E-05
etot    6  N  N  2  U    -385.52651948054  5.3E-08  0.0E+00  0.0E+00
  
  
 Energy components, in hartrees:
   (A)  Nuclear repulsion............     455.37626019350
   (E)  Total one-electron terms.....   -1408.35633513719
   (I)  Total two-electron terms.....     567.45355546315
   (L)  Electronic energy............    -840.90277967404  (E+I)
   (N)  Total energy.................    -385.52651948054  (A+L)
   (O)  Gas phase energy.............    -385.52651948054
  
                                 Total             Coulomb       Exchange+Corr.
 Total two-electron terms     567.45355546315     624.37889978445     -56.92534432130
   Hamiltonian  1........     295.88926636326     316.24236720056     -20.35310083730
   Hamiltonian  2........     288.12781957627     308.13653258390     -20.00871300762
  
 SCFE: SCF energy: UDFT(b3lyp)      -385.52651948054 hartrees   iterations:   6
  
 
 Alpha HOMO energy:    -0.41453
 Alpha LUMO energy:    -0.24507
 
  Alpha Orbital energies (hartrees): 
   -10.39843   -10.39841   -10.39836   -10.39832   -10.38757   -10.38725
   -10.38202   -10.38190   -10.38151   -10.38148    -1.07248    -1.01851
    -0.97318    -0.93623    -0.91469    -0.82332    -0.80208    -0.79039
    -0.70490    -0.69890    -0.68370    -0.63879    -0.63326    -0.61130
    -0.61119    -0.58520    -0.58140    -0.56217    -0.52671    -0.52206
    -0.51999    -0.48549    -0.43414    -0.41453    -0.24507    -0.18986
    -0.16527    -0.09498    -0.06248    -0.04404    -0.04023     0.00426
     0.00536     0.01058
 
 
 Beta HOMO energy:    -0.43341
 Beta LUMO energy:    -0.34733
 
  Beta Orbital energies (hartrees): 
   -10.39468   -10.39467   -10.39462   -10.39460   -10.38861   -10.38829
   -10.38147   -10.38136   -10.38095   -10.38093    -1.06791    -1.01203
    -0.96463    -0.93535    -0.90310    -0.81833    -0.79887    -0.78595
    -0.70206    -0.69488    -0.68143    -0.63623    -0.63255    -0.60893
    -0.60813    -0.57885    -0.57312    -0.56092    -0.52424    -0.52121
    -0.50156    -0.45845    -0.43341    -0.34733    -0.21886    -0.18309
    -0.14605    -0.07948    -0.06128    -0.04234    -0.03852     0.00723
     0.01220
 
  
  
    Unrestricted Spin Properties ...
    Sz*(Sz+1)      0.750
    <S**2> ...     0.762
  
  
  Peak memory usage:   5758 Mb
  
  end of program scf
   
 Time(scf)  user:       45.5  user+sys:       45.5  wallclock:        4.4
  
  start of program der1a
  
  Peak memory usage:   3819 Mb
  
  end of program der1a
   
 Time(der1a)  user:        3.7  user+sys:        3.7  wallclock:        0.8
  
  start of program rwr
  
  Peak memory usage:   3723 Mb
  
  end of program rwr
   
 Time(rwr)  user:       19.7  user+sys:       19.7  wallclock:        2.2
  
  start of program der1b
  
   
  forces (hartrees/bohr) : total     
   
 atom  label           x              y              z
 ---- --------   -------------  -------------  -------------
    1 C1          6.115379E-05  -2.787730E-04   1.525652E-04
    2 C2          8.085131E-05   2.554292E-04   1.843659E-05
    3 C3         -4.154652E-05   6.736260E-05  -1.313121E-04
    4 C4          1.276819E-04  -8.760405E-06  -7.903723E-04
    5 C5          6.279031E-05   1.625360E-04   3.625532E-04
    6 C6         -1.478387E-04   3.013823E-04  -1.669856E-04
    7 C7         -1.748564E-04  -2.706091E-04   1.663647E-04
    8 C8          9.153100E-05  -2.028590E-04  -1.629576E-04
    9 C9          2.627846E-05   3.080967E-05  -2.024970E-04
   10 C10         6.029714E-06  -7.465628E-05  -3.088903E-04
   11 H11        -1.428068E-05   3.379551E-05   4.682916E-05
   12 H12        -1.382457E-05  -1.995552E-05   9.733750E-05
   13 H13         5.497905E-05   1.417009E-05   2.286397E-04
   14 H14        -7.528381E-05   2.085168E-05   1.449398E-04
   15 H15        -3.381022E-05  -3.203290E-05  -5.636573E-06
   16 H16        -1.073949E-07   1.693475E-05   5.622855E-05
   17 H17        -5.230253E-05  -1.430500E-05   2.474162E-04
   18 H18         3.158354E-05  -1.662619E-06   2.215274E-04
 -------------   -------------  -------------  -------------
     total       -1.097165E-05  -3.420742E-07  -2.581336E-05
   
  Peak memory usage:   5729 Mb
  
  end of program der1b
   
 Time(der1b)  user:       18.6  user+sys:       18.6  wallclock:        2.0
  
  start of program geopt
  
 ----------------------------------------------------------------------------
  Geometry optimization step  4
  Total energy:      -385.52651948054 hartrees
 ----------------------------------------------------------------------------
  
  energy change:          -7.0604E-05 .  (  5.0000E-05 )
  gradient maximum:        1.0285E-03 .  (  4.5000E-04 )
  gradient rms:            2.4321E-04 *  (  3.0000E-04 )
  displacement maximum:    1.3512E-02 .  (  1.8000E-03 )
  displacement rms:        2.8141E-03 .  (  1.2000E-03 )
  
  predicted energy change:  -1.5136E-05
  step size:     0.02180
  trust radius:  0.30000
  
  molecular structure not yet converged...
  
  center of mass moved by:
     x:     7.0450E-05     y:     2.8748E-05     z:    -5.7708E-03
  
  new geometry: 
                                   angstroms
  atom               x                 y                 z
  C1            2.4716267234     -0.6655589092      0.0357059686 
  C2            2.4498875684      0.7302475885      0.0276684758 
  C3            1.2200420613      1.4195679240      0.0151730532 
  C4           -0.0082847357      0.7122941060      0.0133976037 
  C5           -1.2579594216      1.3809258254     -0.0008845781 
  C6           -2.4657497754      0.6534448749     -0.0045740622 
  C7           -2.4440392485     -0.7424542209      0.0019023091 
  C8           -1.2140322812     -1.4317204727      0.0140215415 
  C9            0.0141015040     -0.7242491509      0.0213040644 
  C10           1.2638370791     -1.3929185338      0.0311812992 
  H11           3.4166648505     -1.1958076785      0.0444898363 
  H12           3.3779568260      1.2897372063      0.0299862021 
  H13           1.2108161045      2.5049623342      0.0064850728 
  H14          -1.2825606535      2.4660874498     -0.0089539295 
  H15          -3.4108253945      1.1836731017     -0.0136231066 
  H16          -3.3720772027     -1.3019982890     -0.0029236816 
  H17          -1.2046399978     -2.5171543116      0.0166174378 
  H18           1.2883994054     -2.4780932325      0.0343710236 
   
  nuclear repulsion energy.......     455.345953823 hartrees
  -------------------------------------------------
 /  end of geometry optimization iteration   4   /
 -------------------------------------------------
   
  Peak memory usage:   4724 Mb
  
  end of program geopt
   
 Time(geopt)  user:        5.6  user+sys:        5.6  wallclock:        0.5
  
  start of program onee
  
  smallest eigenvalue of S:    4.203E-04
  number of canonical orbitals.....          105
  Peak memory usage:   3816 Mb
  
  end of program onee
   
 Time(onee)  user:        2.5  user+sys:        2.5  wallclock:        0.7
  
  start of program probe
  
  Peak memory usage:   3718 Mb
  
  end of program probe
   
 Time(probe)  user:        2.4  user+sys:        2.4  wallclock:        0.6
  
  start of program grid
  
   grid     grid set  grid #  grid sym
  ------    --------  ------  --------
  coarse        0        0        1
  medium        2        1        1
  fine          0        0        1
  ultrafine     4        2        1
  charge       -1        3        1
  gradient      4        2        1
  density       0        0        1
  DFT-fine    -11        4        1
  DFT-med.    -10        5        1
  DFT-grad    -12        6        1
  DFT-der2      0        0        1
  DFT-cphf      0        0        1
  LMP2-enrg     4        2        1
  LMP2-grad     2        1        1
  DFT-cphf2     0        0        1
  PBF-dens      0        0        1
  plotting      0        0        1
  Rel-grad    -17        0        1
  
  number of gridpoints: 
     atom        C1       C2       C3       C4       C5       C6       C7
  grid # 1       97       97       97      101       97       97       97
  grid # 2      339      339      339      368      339      339      339
  grid # 3      232      232      232      256      232      232      232
  grid # 4     4304     4304     4304     4304     4304     4304     4304
  grid # 5     1192     1192     1192     1192     1192     1192     1192
  grid # 6     5226     5226     5226     5226     5226     5226     5226
   
  number of gridpoints: 
     atom        C8       C9      C10      H11      H12      H13      H14
  grid # 1       97      101       97      118      118      118      118
  grid # 2      339      368      339      451      451      446      446
  grid # 3      233      257      232     1333     1333     1156     1156
  grid # 4     4304     4304     4304     4304     4304     4304     4304
  grid # 5     1192     1192     1192     1192     1192     1192     1192
  grid # 6     5226     5226     5226     5226     5226     5226     5226
   
  number of gridpoints: 
     atom       H15      H16      H17      H18    total
  grid # 1      118      118      118      118     1922
  grid # 2      451      451      446      446     7036
  grid # 3     1334     1333     1156     1156    12327
  grid # 4     4304     4304     4304     4304    77472
  grid # 5     1192     1192     1192     1192    21456
  grid # 6     5226     5226     5226     5226    94068
   
  Peak memory usage:   3762 Mb
  
  end of program grid
   
 Time(grid)  user:       10.3  user+sys:       10.3  wallclock:        1.4
  
  start of program rwr
  
  Peak memory usage:   3721 Mb
  
  end of program rwr
   
 Time(rwr)  user:       21.3  user+sys:       21.3  wallclock:        1.9
  
  start of program scf
  
 Energy computed with NOPS off.
  
       i  u  d  i  g                   
       t  p  i  c  r                                 RMS    maximum
       e  d  i  u  i                       energy  density   DIIS  
       r  t  s  t  d       total energy    change  change    error 
  
etot    1  N  N  2  U    -385.52643187963           1.2E-04  1.7E-03
etot    2  Y  Y  6  M    -385.52653628825  1.0E-04  2.2E-05  3.0E-04
etot    3  N  Y  2  U    -385.52653831788  2.0E-06  1.3E-05  2.3E-04
etot    4  N  Y  2  U    -385.52653891994  6.0E-07  5.4E-06  1.3E-04
etot    5  N  Y  2  U    -385.52653909356  1.7E-07  1.6E-06  2.3E-05
etot    6  N  N  2  U    -385.52653909901  5.5E-09  0.0E+00  0.0E+00
  
  
 Energy components, in hartrees:
   (A)  Nuclear repulsion............     455.34595382299
   (E)  Total one-electron terms.....   -1408.29709399058
   (I)  Total two-electron terms.....     567.42460106858
   (L)  Electronic energy............    -840.87249292200  (E+I)
   (N)  Total energy.................    -385.52653909901  (A+L)
   (O)  Gas phase energy.............    -385.52653909901
  
                                 Total             Coulomb       Exchange+Corr.
 Total two-electron terms     567.42460106858     624.34916216944     -56.92456110086
   Hamiltonian  1........     295.87450849716     316.22732562071     -20.35281712355
   Hamiltonian  2........     288.11341097790     308.12183654873     -20.00842557083
  
 SCFE: SCF energy: UDFT(b3lyp)      -385.52653909901 hartrees   iterations:   6
  
 
 Alpha HOMO energy:    -0.41455
 Alpha LUMO energy:    -0.24503
 
  Alpha Orbital energies (hartrees): 
   -10.39842   -10.39841   -10.39840   -10.39837   -10.38759   -10.38726
   -10.38200   -10.38198   -10.38154   -10.38151    -1.07242    -1.01843
    -0.97316    -0.93615    -0.91470    -0.82324    -0.80208    -0.79035
    -0.70488    -0.69889    -0.68364    -0.63879    -0.63321    -0.61125
    -0.61121    -0.58516    -0.58143    -0.56211    -0.52672    -0.52205
    -0.51993    -0.48549    -0.43408    -0.41455    -0.24503    -0.18990
    -0.16527    -0.09504    -0.06246    -0.04406    -0.04023     0.00427
     0.00535     0.01052
 
 
 Beta HOMO energy:    -0.43334
 Beta LUMO energy:    -0.34735
 
  Beta Orbital energies (hartrees): 
   -10.39468   -10.39467   -10.39466   -10.39464   -10.38862   -10.38830
   -10.38146   -10.38143   -10.38099   -10.38096    -1.06785    -1.01195
    -0.96462    -0.93526    -0.90311    -0.81826    -0.79887    -0.78592
    -0.70204    -0.69487    -0.68137    -0.63623    -0.63251    -0.60888
    -0.60814    -0.57888    -0.57308    -0.56086    -0.52425    -0.52120
    -0.50150    -0.45845    -0.43334    -0.34735    -0.21883    -0.18313
    -0.14605    -0.07954    -0.06126    -0.04237    -0.03852     0.00724
     0.01214
 
  
  
    Unrestricted Spin Properties ...
    Sz*(Sz+1)      0.750
    <S**2> ...     0.762
  
  
  Peak memory usage:   5758 Mb
  
  end of program scf
   
 Time(scf)  user:       43.1  user+sys:       43.1  wallclock:        3.8
  
  start of program der1a
  
  Peak memory usage:   3817 Mb
  
  end of program der1a
   
 Time(der1a)  user:        3.2  user+sys:        3.2  wallclock:        0.8
  
  start of program rwr
  
  Peak memory usage:   3723 Mb
  
  end of program rwr
   
 Time(rwr)  user:       21.0  user+sys:       21.0  wallclock:        2.2
  
  start of program der1b
  
   
  forces (hartrees/bohr) : total     
   
 atom  label           x              y              z
 ---- --------   -------------  -------------  -------------
    1 C1          1.265373E-04   4.094089E-05  -2.022298E-05
    2 C2          1.279945E-04  -3.297403E-05  -3.430675E-05
    3 C3         -2.626150E-05   1.261825E-04   1.104871E-04
    4 C4          1.233069E-05   2.803837E-06  -2.546394E-04
    5 C5         -3.228986E-05   7.558312E-05   1.666342E-04
    6 C6         -1.256054E-04  -8.282404E-05  -7.644096E-05
    7 C7         -3.603790E-05   8.147042E-05   3.491992E-05
    8 C8         -9.412868E-05  -8.536527E-05  -5.893083E-06
    9 C9          3.676115E-05  -2.465292E-05  -2.049795E-04
   10 C10        -2.314596E-05  -1.035706E-04   5.117438E-05
   11 H11        -4.263279E-06   3.099340E-05  -8.013299E-06
   12 H12        -3.554467E-06  -3.326648E-05   3.723744E-06
   13 H13        -2.981310E-06  -3.031561E-05   5.152457E-05
   14 H14         5.238048E-06  -3.763721E-05   3.928125E-05
   15 H15         2.200144E-05  -4.055488E-05  -3.023575E-05
   16 H16         1.324214E-05   4.266722E-05   1.781600E-05
   17 H17         1.304920E-06   4.169631E-05   7.810700E-05
   18 H18        -6.335042E-06   2.501135E-05   7.254381E-05
 -------------   -------------  -------------  -------------
     total       -9.193209E-06  -3.811929E-06  -8.519800E-06
   
  Peak memory usage:   5730 Mb
  
  end of program der1b
   
 Time(der1b)  user:       18.2  user+sys:       18.2  wallclock:        1.8
  
  start of program geopt
  
 ----------------------------------------------------------------------------
  Geometry optimization step  5
  Total energy:      -385.52653909901 hartrees
 ----------------------------------------------------------------------------
  
  energy change:          -1.9618E-05 *  (  5.0000E-05 )
  gradient maximum:        2.6599E-04 *  (  4.5000E-04 )
  gradient rms:            8.2159E-05 *  (  3.0000E-04 )
  displacement maximum:    2.7531E-03 .  (  1.8000E-03 )
  displacement rms:        9.5304E-04 *  (  1.2000E-03 )
  
  predicted energy change:  -1.6789E-06
  step size:     0.00738
  trust radius:  0.30000
  
  molecular structure not yet converged...
  
  center of mass moved by:
     x:     2.0260E-05     y:    -1.4564E-05     z:    -1.5005E-03
  
  new geometry: 
                                   angstroms
  atom               x                 y                 z
  C1            2.4718996963     -0.6655220993      0.0358780294 
  C2            2.4501424908      0.7302516562      0.0283526357 
  C3            1.2201296433      1.4196102938      0.0156312862 
  C4           -0.0082737844      0.7122711541      0.0115005400 
  C5           -1.2581126200      1.3808440411     -0.0006986367 
  C6           -2.4659546638      0.6533641858     -0.0045351313 
  C7           -2.4442185592     -0.7423303842      0.0028229134 
  C8           -1.2142351519     -1.4316764907      0.0144058086 
  C9            0.0141083493     -0.7242903488      0.0193904232 
  C10           1.2639617662     -1.3929556954      0.0308374166 
  H11           3.4170222153     -1.1955777595      0.0453299417 
  H12           3.3782787637      1.2895922654      0.0320172594 
  H13           1.2109104991      2.5049895594      0.0096185327 
  H14          -1.2828037597      2.4659655795     -0.0068256437 
  H15          -3.4110893774      1.1833783363     -0.0135153929 
  H16          -3.3723455278     -1.3016485016     -0.0004999996 
  H17          -1.2049788967     -2.5170456873      0.0197019094 
  H18           1.2885293573     -2.4780957730      0.0362248383 
   
  nuclear repulsion energy.......     455.327206291 hartrees
  -------------------------------------------------
 /  end of geometry optimization iteration   5   /
 -------------------------------------------------
   
  Peak memory usage:   4724 Mb
  
  end of program geopt
   
 Time(geopt)  user:        5.6  user+sys:        5.6  wallclock:        0.5
  
  start of program onee
  
  smallest eigenvalue of S:    4.204E-04
  number of canonical orbitals.....          105
  Peak memory usage:   3813 Mb
  
  end of program onee
   
 Time(onee)  user:        3.8  user+sys:        3.8  wallclock:        0.8
  
  start of program probe
  
  Peak memory usage:   3721 Mb
  
  end of program probe
   
 Time(probe)  user:        2.1  user+sys:        2.1  wallclock:        0.7
  
  start of program grid
  
   grid     grid set  grid #  grid sym
  ------    --------  ------  --------
  coarse        0        0        1
  medium        2        1        1
  fine          0        0        1
  ultrafine     4        2        1
  charge       -1        3        1
  gradient      4        2        1
  density       0        0        1
  DFT-fine    -11        4        1
  DFT-med.    -10        5        1
  DFT-grad    -12        6        1
  DFT-der2      0        0        1
  DFT-cphf      0        0        1
  LMP2-enrg     4        2        1
  LMP2-grad     2        1        1
  DFT-cphf2     0        0        1
  PBF-dens      0        0        1
  plotting      0        0        1
  Rel-grad    -17        0        1
  
  number of gridpoints: 
     atom        C1       C2       C3       C4       C5       C6       C7
  grid # 1       97       97       97      101       97       97       97
  grid # 2      339      339      339      368      339      339      339
  grid # 3      232      232      232      258      232      232      232
  grid # 4     4304     4304     4304     4304     4304     4304     4304
  grid # 5     1192     1192     1192     1192     1192     1192     1192
  grid # 6     5226     5226     5226     5226     5226     5226     5226
   
  number of gridpoints: 
     atom        C8       C9      C10      H11      H12      H13      H14
  grid # 1       97      101       97      118      118      118      118
  grid # 2      339      368      339      451      451      446      446
  grid # 3      232      258      232     1334     1334     1156     1156
  grid # 4     4304     4304     4304     4304     4304     4304     4304
  grid # 5     1192     1192     1192     1192     1192     1192     1192
  grid # 6     5226     5226     5226     5226     5226     5226     5226
   
  number of gridpoints: 
     atom       H15      H16      H17      H18    total
  grid # 1      118      118      118      118     1922
  grid # 2      451      451      446      446     7036
  grid # 3     1334     1334     1156     1156    12332
  grid # 4     4304     4304     4304     4304    77472
  grid # 5     1192     1192     1192     1192    21456
  grid # 6     5226     5226     5226     5226    94068
   
  Peak memory usage:   3763 Mb
  
  end of program grid
   
 Time(grid)  user:        9.8  user+sys:        9.8  wallclock:        1.5
  
  start of program rwr
  
  Peak memory usage:   3722 Mb
  
  end of program rwr
   
 Time(rwr)  user:       22.7  user+sys:       22.7  wallclock:        2.1
  
  start of program scf
  
 Energy computed with NOPS off.
  
       i  u  d  i  g                   
       t  p  i  c  r                                 RMS    maximum
       e  d  i  u  i                       energy  density   DIIS  
       r  t  s  t  d       total energy    change  change    error 
  
etot    1  N  N  2  U    -385.52653502662           3.1E-05  3.6E-04
etot    2  N  Y  2  U    -385.52654093328  5.9E-06  7.5E-06  7.1E-05
etot    3  N  Y  2  U    -385.52654094594  1.3E-08  4.8E-06  1.2E-04
etot    4  N  N  2  U    -385.52654108900  1.4E-07  0.0E+00  0.0E+00
  
  
 Energy components, in hartrees:
   (A)  Nuclear repulsion............     455.32720629132
   (E)  Total one-electron terms.....   -1408.26031020098
   (I)  Total two-electron terms.....     567.40656282066
   (L)  Electronic energy............    -840.85374738032  (E+I)
   (N)  Total energy.................    -385.52654108900  (A+L)
   (O)  Gas phase energy.............    -385.52654108900
  
                                 Total             Coulomb       Exchange+Corr.
 Total two-electron terms     567.40656282066     624.33090024477     -56.92433742411
   Hamiltonian  1........     295.86531855270     316.21804750629     -20.35272895359
   Hamiltonian  2........     288.10450310299     308.11285273848     -20.00834963549
  
 SCFE: SCF energy: UDFT(b3lyp)      -385.52654108900 hartrees   iterations:   4
  
 
 Alpha HOMO energy:    -0.41452
 Alpha LUMO energy:    -0.24506
 
  Alpha Orbital energies (hartrees): 
   -10.39845   -10.39844   -10.39837   -10.39834   -10.38758   -10.38726
   -10.38206   -10.38194   -10.38156   -10.38151    -1.07237    -1.01842
    -0.97310    -0.93616    -0.91466    -0.82328    -0.80204    -0.79033
    -0.70486    -0.69889    -0.68366    -0.63877    -0.63320    -0.61127
    -0.61118    -0.58512    -0.58143    -0.56211    -0.52673    -0.52204
    -0.51993    -0.48544    -0.43409    -0.41452    -0.24506    -0.18988
    -0.16528    -0.09505    -0.06245    -0.04405    -0.04019     0.00424
     0.00533     0.01054
 
 
 Beta HOMO energy:    -0.43336
 Beta LUMO energy:    -0.34732
 
  Beta Orbital energies (hartrees): 
   -10.39471   -10.39469   -10.39464   -10.39460   -10.38861   -10.38829
   -10.38152   -10.38140   -10.38101   -10.38096    -1.06780    -1.01194
    -0.96455    -0.93528    -0.90307    -0.81829    -0.79883    -0.78590
    -0.70203    -0.69487    -0.68139    -0.63621    -0.63249    -0.60890
    -0.60812    -0.57888    -0.57304    -0.56086    -0.52426    -0.52118
    -0.50150    -0.45840    -0.43336    -0.34732    -0.21886    -0.18312
    -0.14606    -0.07954    -0.06125    -0.04236    -0.03848     0.00721
     0.01216
 
  
  
    Unrestricted Spin Properties ...
    Sz*(Sz+1)      0.750
    <S**2> ...     0.762
  
  
  Peak memory usage:   5758 Mb
  
  end of program scf
   
 Time(scf)  user:       41.6  user+sys:       41.6  wallclock:        3.8
  
  start of program der1a
  
  Peak memory usage:   3821 Mb
  
  end of program der1a
   
 Time(der1a)  user:        3.2  user+sys:        3.2  wallclock:        0.8
  
  start of program rwr
  
  Peak memory usage:   3722 Mb
  
  end of program rwr
   
 Time(rwr)  user:       21.6  user+sys:       21.6  wallclock:        2.3
  
  start of program der1b
  
   
  forces (hartrees/bohr) : total     
   
 atom  label           x              y              z
 ---- --------   -------------  -------------  -------------
    1 C1         -2.126124E-05   5.388154E-06  -3.409492E-05
    2 C2         -2.020374E-05   1.764136E-07  -2.901566E-05
    3 C3          3.126530E-05   2.690981E-05   8.712108E-05
    4 C4          1.988235E-05   4.191403E-05  -3.358201E-05
    5 C5          1.396658E-05   6.279246E-05   4.743337E-05
    6 C6         -4.650001E-05   4.805851E-05  -2.414053E-05
    7 C7         -1.063934E-05  -5.928530E-05  -8.383330E-06
    8 C8          4.004443E-06  -4.453376E-05   2.999533E-05
    9 C9          4.351486E-05  -6.706797E-05  -8.996755E-05
   10 C10         2.070965E-05  -1.583203E-05   7.272373E-05
   11 H11        -2.232285E-05   1.701919E-06  -3.940772E-07
   12 H12        -2.036710E-05  -7.594296E-06  -2.355736E-06
   13 H13        -9.333264E-06  -1.449452E-05  -1.520677E-05
   14 H14         1.070669E-05   3.083704E-06  -6.596113E-06
   15 H15         2.177920E-06   1.182962E-05  -9.589167E-08
   16 H16        -2.371177E-06  -7.814688E-06   1.565902E-06
   17 H17         7.113789E-06  -1.462420E-06   4.110818E-06
   18 H18        -7.329069E-06   1.276380E-05  -1.483490E-07
 -------------   -------------  -------------  -------------
     total       -6.986198E-06  -3.466573E-06  -1.030701E-06
   
  Peak memory usage:   5729 Mb
  
  end of program der1b
   
 Time(der1b)  user:       15.0  user+sys:       15.0  wallclock:        1.7
  
  start of program geopt
  
 ----------------------------------------------------------------------------
  Geometry optimization step  6
  Total energy:      -385.52654108900 hartrees
 ----------------------------------------------------------------------------
  
  energy change:          -1.9900E-06 #  (  5.0000E-05 )
  gradient maximum:        9.9531E-05 *  (  4.5000E-04 )
  gradient rms:            2.6913E-05 #  (  3.0000E-04 )
  displacement maximum:    8.4144E-04 *  (  1.8000E-03 )
  displacement rms:        2.7342E-04 *  (  1.2000E-03 )
  
  predicted energy change:  -1.2599E-07
  step size:     0.00212
  trust radius:  0.30000
  
  ********************************************************
  **           Geometry optimization complete           **
  ********************************************************
  
  Checking the geometry optimization convergence pattern ...
  
  best                    worst
  ==0=====1=====2=====3=====4==
    ^                          
  
  Convergence category 0: monotonic convergence.
  Geometry optimization was OK.
  
  Number of imaginary frequencies:   0
  
  center of mass moved by:
     x:     0.0000E+00     y:     0.0000E+00     z:     0.0000E+00
  
  final geometry: 
                                   angstroms
  atom               x                 y                 z
  C1            2.4718996963     -0.6655220993      0.0358780294 
  C2            2.4501424908      0.7302516562      0.0283526357 
  C3            1.2201296433      1.4196102938      0.0156312862 
  C4           -0.0082737844      0.7122711541      0.0115005400 
  C5           -1.2581126200      1.3808440411     -0.0006986367 
  C6           -2.4659546638      0.6533641858     -0.0045351313 
  C7           -2.4442185592     -0.7423303842      0.0028229134 
  C8           -1.2142351519     -1.4316764907      0.0144058086 
  C9            0.0141083493     -0.7242903488      0.0193904232 
  C10           1.2639617662     -1.3929556954      0.0308374166 
  H11           3.4170222153     -1.1955777595      0.0453299417 
  H12           3.3782787637      1.2895922654      0.0320172594 
  H13           1.2109104991      2.5049895594      0.0096185327 
  H14          -1.2828037597      2.4659655795     -0.0068256437 
  H15          -3.4110893774      1.1833783363     -0.0135153929 
  H16          -3.3723455278     -1.3016485016     -0.0004999996 
  H17          -1.2049788967     -2.5170456873      0.0197019094 
  H18           1.2885293573     -2.4780957730      0.0362248383 
   
  principal moments of inertia:
        amu*angstrom^2:      161.97710      416.55964      578.53671
                g*cm^2: 2.68969267E-38 6.91713466E-38 9.60682692E-38
   
  rotational constants:
               cm^(-1):      0.10407415      0.04046871      0.02913839
                   GHz:      3.12006456      1.21322126      0.87354700
   
  nuclear repulsion energy.......     455.327206291 hartrees
  -------------------------------------------------
 /  end of geometry optimization iteration   6   /
 -------------------------------------------------
   
  Peak memory usage:   4820 Mb
  
  end of program geopt
   
 Time(geopt)  user:       10.4  user+sys:       10.4  wallclock:        1.2
  
  start of program ch
  
  Moments from quantum mechanical wavefunction:
  Dipole Moments  (Debye)
     X=     0.0026     Y=    -0.0000     Z=    -0.0002  Tot=     0.0026
  
  gridpoints used for charge fit        11724
    out of a possible maximum of        12332
  
   Electrostatic potential fitting constrained to reproduce
     total charge:                yes
     dipole moment:               yes
     traceless quadrupole moment: no 
     traceless octapole moment:   no 
  
  Atomic charges from electrostatic potential: 
   
 Atom       C1           C2           C3           C4           C5      
 Charge   -0.04499     -0.04541     -0.07819      0.10442     -0.07849
   
 Atom       C6           C7           C8           C9           C10     
 Charge   -0.04537     -0.04502     -0.07891      0.10506     -0.07865
   
 Atom       H11          H12          H13          H14          H15     
 Charge    0.15725      0.15733      0.16403      0.16410      0.15730
   
 Atom       H16          H17          H18     
 Charge    0.15726      0.16418      0.16411
  
  sum of atomic charges:     1.000000
   
 RMS Error   7.09E-04 hartrees
 
  
  Moments from electrostatic potential charges:
  Dipole Moments  (Debye)
     X=     0.0026     Y=    -0.0000     Z=    -0.0003  Tot=     0.0026
  
  Peak memory usage:   3809 Mb
  
  end of program ch
   
 Time(ch)  user:        6.4  user+sys:        6.4  wallclock:        2.7

 Total cpu seconds     user:     760.388   user+sys:     760.388
  
 Total elapsed time:    119 seconds

Job Napthalene_1 completed on n078 at Sun Jan  8 22:27:06 2017
