Job ondansetron_1 started on n043 at Sun Jan  8 22:25:55 2017
jobid: u01-0-58730282

  +--------------------------------------------------------------------+
  |  Jaguar version 9.3, release  15                                   |
  |                                                                    |
  |  Copyright Schrodinger, Inc.                                       |
  |  All Rights Reserved.                                              |
  |                                                                    |
  |  The following have contributed to Jaguar (listed alphabetically): |
  |  Mike Beachy, Art Bochevarov, Dale Braden, Yixiang Cao,            |
  |  Chris Cortis, Rich Friesner, Bill Goddard, Hod Greeley,           |
  |  Tom Hughes, Leif Jacobson, Jean-Marc Langlois,                    |
  |  Daniel Mainz, Rob Murphy, Dean Philipp,                           |
  |  Tom Pollard, Murco Ringnalda, Mark Watson.                        |
  |                                                                    |
  |  Use of this program should be acknowledged in publications as:    |
  |                                                                    |
  |  Jaguar, version 9.3, Schrodinger, Inc., New York, NY, 2016.       |
  |                                                                    |
  |  A. D. Bochevarov, E. Harder, T. F. Hughes, J. R. Greenwood,       |
  |  D. A. Braden, D. M. Philipp, D. Rinaldo, M. D. Halls,             |
  |  J. Zhang, R. A. Friesner, "Jaguar: A High-Performance Quantum     |
  |  Chemistry Software Program with Strengths in Life and Materials   |
  |  Sciences", Int. J. Quantum Chem., 2013, 113(18), 2110-2142.       |
  +--------------------------------------------------------------------+
  
  start of program pre
  
  Job name: ondansetron_1
  Executables used: /home/applications/Schrodinger_Suites_2016-3/jaguar-v9.3/bin/Linux-x86_64
  Temporary files : /scratch/Schrodinger_Suites/pbeni001/ondansetron_1#u01-0-58730282
  Maestro file (input):  ondansetron_1.mae
  Maestro file (output): ondansetron_1.01.mae
  
  basis set:             6-31g                           
  net molecular charge:    1
  multiplicity:            2
  
  Using up to  16 threads per process
  
  number of basis functions....          236
  
 Input geometry:
                                   angstroms
  atom               x                 y                 z
  C1            1.0420587000      0.5555661000     -0.4146710000 
  C2            2.4914856000      0.2416019000     -0.2581227000 
  N3            3.3564950000      1.2256329000     -0.1370240000 
  C4            4.5815430000      0.6528231000     -0.0310407000 
  C5            4.4846411000     -0.7134882000     -0.0445895000 
  N6            3.1374329000     -0.9947967000     -0.1332010000 
  C7            2.6489594000     -2.3769434000      0.0114539000 
  C8            1.1493690000     -2.5130662000      0.1394291000 
  C9            0.5742112000     -1.6440161000      1.2806116000 
  C10          -0.8996188000     -1.3098263000      0.9170234000 
  C11          -1.5578353000     -2.6266478000      0.8902870000 
  C12          -0.8634828000     -3.8143140000      0.7354303000 
  C13          -1.7820148000     -4.8367951000      0.9339249000 
  C14          -1.6066580000     -6.2196471000      0.9674742000 
  C15          -2.7158902000     -7.0182294000      1.1643998000 
  C16          -3.9749060000     -6.4435014000      1.3306912000 
  C17          -4.1713039000     -5.0555232000      1.3146103000 
  C18          -3.0461921000     -4.2542489000      1.1164186000 
  N19          -2.8878422000     -2.8821535000      1.0613119000 
  C20          -3.9228795000     -1.8734961000      1.1891621000 
  C21           0.5946373000     -3.8780321000      0.5114275000 
  O22           1.2769846000     -4.8676095000      0.6567969000 
  H23           0.8467264000      1.5751666000     -0.7451675000 
  H24           0.5384410000      0.5879083000      0.5542394000 
  H25           0.5582032000     -0.1255250000     -1.1148275000 
  H26           5.4652843000      1.2671149000      0.0466383000 
  H27           5.2390679000     -1.4850985000      0.0227521000 
  H28           3.1481292000     -2.8138518000      0.8874504000 
  H29           3.0233809000     -2.9335395000     -0.8623107000 
  H30           0.7347013000     -2.2965329000     -0.8577692000 
  H31           1.2156814000     -0.8091015000      1.5326939000 
  H32           0.5964799000     -2.1827429000      2.2377357000 
  H33          -1.0396528000     -0.8843833000     -0.0863844000 
  H34          -1.3235562000     -0.6060579000      1.6338985000 
  H35          -0.6113097000     -6.6368579000      0.8394512000 
  H36          -2.5781988000     -8.0929389000      1.1815534000 
  H37          -4.8289998000     -7.0949514000      1.4788300000 
  H38          -5.1589837000     -4.6315056000      1.4520914000 
  H39          -4.8960096000     -2.3411639000      1.3455657000 
  H40          -3.9522393000     -1.2773170000      0.2709593000 
  H41          -3.6923909000     -1.2272990000      2.0420789000 
   
  principal moments of inertia:
        amu*angstrom^2:      654.23392     3361.41569     3950.00516
                g*cm^2: 1.08638085E-37 5.58176139E-37 6.55913706E-37
   
  rotational constants:
               cm^(-1):      0.02576697      0.00501504      0.00426775
                   GHz:      0.77247448      0.15034707      0.12794389
   
  Molecular weight:     293.15 amu
   
  Stoichiometry: C18N3H19O
  Molecular Point Group: C1      
  Point Group used: C1
  
 
Number of optimization coordinates:   142
Number of independent coordinates:    142
Number of non-redundant coordinates:  117
Number of frozen coordinates:           0
Number of harmonic constraints:         0
 
Number of geometric degrees of freedom:   117
Maximum geometric degrees of freedom:     117
 " " " " " excluding dummy atoms:         117
 
  nuclear repulsion energy.......    1753.642025538 hartrees
 
 Non-default options chosen:
   SCF calculation type: UDFT(b3lyp)                 
   UDFT=Becke_3_Parameter/HF+Slater+Becke88+VWN+LYP (B3LYP)
   Geometry will be optimized in redundant internal coordinates
   Electrostatic potential fit to point charges on atomic centers
   Electrostatic potential fitting constrained to reproduce
     total charge:                yes
     dipole moment:               yes
     traceless quadrupole moment: no 
     traceless octapole moment:   no 
  
 Temporary integer options set:
     73=  2
  
  Peak memory usage:   4803 Mb
  
  end of program pre
   
 Time(pre)  user:        6.9  user+sys:        6.9  wallclock:        0.9
  
  start of program onee
  
  smallest eigenvalue of S:    4.274E-04
  number of canonical orbitals.....          235
  Peak memory usage:   4838 Mb
  
  end of program onee
   
 Time(onee)  user:        3.0  user+sys:        3.0  wallclock:        0.5
  
  start of program hfig
  
  initial wavefunction generated automatically from atomic wavefunctions
  
  -------------------
  Alpha orbital space
  -------------------
 
  Irreducible     Total no   No of occupied orbitals 
  representation  orbitals   Shell_1  Shell_2    ...
  No Symm          235         78
  ------------------------
  Orbital occupation/shell    1.000
 
  ------------------
  Beta orbital space
  ------------------
 
  Irreducible     Total no   No of occupied orbitals 
  representation  orbitals   Shell_1  Shell_2    ...
  No Symm          235         77
  ------------------------
  Orbital occupation/shell    1.000
 
  
  
    Unrestricted Spin Properties ...
    Sz*(Sz+1) ..............     0.750
    <S**2> of initial guess      0.750
  
  
  Peak memory usage:   4756 Mb
  
  end of program hfig
   
 Time(hfig)  user:        4.7  user+sys:        4.7  wallclock:        0.7
  
  start of program probe
  
  Peak memory usage:   4756 Mb
  
  end of program probe
   
 Time(probe)  user:        1.9  user+sys:        1.9  wallclock:        0.5
  
  start of program grid
  
   grid     grid set  grid #  grid sym
  ------    --------  ------  --------
  coarse        0        0        1
  medium        2        1        1
  fine          0        0        1
  ultrafine     4        2        1
  charge       -1        3        1
  gradient      4        2        1
  density       0        0        1
  DFT-fine    -11        4        1
  DFT-med.    -10        5        1
  DFT-grad    -12        6        1
  DFT-der2      0        0        1
  DFT-cphf      0        0        1
  LMP2-enrg     4        2        1
  LMP2-grad     2        1        1
  DFT-cphf2     0        0        1
  PBF-dens      0        0        1
  plotting      0        0        1
  Rel-grad    -17        0        1
  
  number of gridpoints: 
     atom        C1       C2       N3       C4       C5       N6       C7
  grid # 1       78       99      109       95       94      101       86
  grid # 2      264      356      431      327      329      375      283
  grid # 3        6      116      715      220      200      107        6
  grid # 4     4304     4304     4304     4304     4304     4304     4304
  grid # 5     1192     1192     1192     1192     1192     1192     1192
  grid # 6     5226     5226     5226     5226     5226     5226     5226
   
  number of gridpoints: 
     atom        C8       C9      C10      C11      C12      C13      C14
  grid # 1       90       85       83       96       99      100       97
  grid # 2      317      290      287      349      358      354      336
  grid # 3        6        6        6       90      142      251      228
  grid # 4     4304     4304     4304     4304     4304     4304     4304
  grid # 5     1192     1192     1192     1192     1192     1192     1192
  grid # 6     5226     5226     5226     5226     5226     5226     5226
   
  number of gridpoints: 
     atom       C15      C16      C17      C18      N19      C20      C21
  grid # 1       97       97       97       99      104       76       95
  grid # 2      336      339      332      358      373      261      354
  grid # 3      228      231      232      251      137        6       72
  grid # 4     4304     4304     4304     4304     4304     4304     4304
  grid # 5     1192     1192     1192     1192     1192     1192     1192
  grid # 6     5226     5226     5226     5226     5226     5226     5226
   
  number of gridpoints: 
     atom       O22      H23      H24      H25      H26      H27      H28
  grid # 1      123      112      101      103      118      115      106
  grid # 2      492      441      403      415      465      454      431
  grid # 3      960     1128      410      550     1560     1231      710
  grid # 4     4304     4304     4304     4304     4304     4304     4304
  grid # 5     1192     1192     1192     1192     1192     1192     1192
  grid # 6     5226     5226     5226     5226     5226     5226     5226
   
  number of gridpoints: 
     atom       H29      H30      H31      H32      H33      H34      H35
  grid # 1      110      105      104      110      102      108      115
  grid # 2      438      419      405      427      409      428      439
  grid # 3      906      532      418      801      401      637     1010
  grid # 4     4304     4304     4304     4304     4304     4304     4304
  grid # 5     1192     1192     1192     1192     1192     1192     1192
  grid # 6     5226     5226     5226     5226     5226     5226     5226
   
  number of gridpoints: 
     atom       H36      H37      H38      H39      H40      H41    total
  grid # 1      118      118      115      109      110      110     4189
  grid # 2      451      451      438      432      441      436    15724
  grid # 3     1334     1324     1020      798     1064      966    21016
  grid # 4     4304     4304     4304     4304     4304     4304   176464
  grid # 5     1192     1192     1192     1192     1192     1192    48872
  grid # 6     5226     5226     5226     5226     5226     5226   214266
   
  Peak memory usage:   4788 Mb
  
  end of program grid
   
 Time(grid)  user:       22.3  user+sys:       22.3  wallclock:        1.9
  
  start of program rwr
  
  Peak memory usage:   4745 Mb
  
  end of program rwr
   
 Time(rwr)  user:       47.7  user+sys:       47.7  wallclock:        4.8
  
  start of program scf
  
 number of electrons..........        155
 number of alpha electrons....         78
 number of beta electrons.....         77
 number of alpha orbitals.....        235
 number of beta orbitals......        235
 number of alpha occupied orb..        78
 number of alpha virtual orb...       157
 number of beta occupied orb...        77
 number of beta virtual orb....       158
 SCF type: UDFT=Becke_3_Parameter/HF+Slater+Becke88+VWN+LYP (B3LYP)
 Energy computed with NOPS off.
  
       i  u  d  i  g                   
       t  p  i  c  r                                 RMS    maximum
       e  d  i  u  i                       energy  density   DIIS  
       r  t  s  t  d       total energy    change  change    error 
  
etot    1  N  N  5  M    -933.28794497313           1.2E-02  1.7E-01
etot    2  Y  Y  6  M    -932.78165211797 -5.1E-01  1.5E-02  2.3E-01
etot    3  Y  Y  6  M    -930.63638872879 -2.1E+00  1.1E-02  2.9E-01
etot    4  N  Y  2  U    -935.01442901360  4.4E+00  8.7E-03  8.5E-02
etot    5  Y  Y  6  M    -936.01823029095  1.0E+00  4.9E-03  4.6E-02
etot    6  N  Y  2  U    -936.18009072693  1.6E-01  1.7E-03  3.7E-02
etot    7  Y  Y  6  M    -936.23097022938  5.1E-02  9.9E-04  2.1E-02
etot    8  N  Y  2  U    -936.25561865043  2.5E-02  2.9E-03  7.5E-03
etot    9  Y  Y  6  M    -936.17770806878 -7.8E-02  2.6E-03  1.9E-02
etot   10  N  Y  2  U    -936.26500901405  8.7E-02  2.3E-03  7.8E-03
etot   11  Y  Y  6  M    -936.21239559920 -5.3E-02  2.7E-04  2.8E-02
etot   12  N  Y  2  U    -936.22632335987  1.4E-02  6.1E-05  2.9E-02
etot   13  Y  Y  6  M    -936.22384980056 -2.5E-03  1.3E-04  2.9E-02
etot   14  Y  Y  6  M    -936.21824483280 -5.6E-03  8.9E-06  2.8E-02
etot   15  N  Y  2  U    -936.21782756019 -4.2E-04  1.8E-04  2.8E-02
etot   16  Y  Y  6  M    -936.22606524693  8.2E-03  5.9E-05  2.9E-02
etot   17  N  Y  2  U    -936.22898989944  2.9E-03  5.7E-05  2.9E-02
etot   18  Y  Y  6  M    -936.22945300689  4.6E-04  3.3E-04  2.9E-02
etot   19  Y  Y  6  M    -936.24297947127  1.4E-02  3.3E-04  2.6E-02
etot   20  N  Y  2  U    -936.23270554145 -1.0E-02  3.6E-03  2.9E-02
etot   21  N  Y  2  U    -936.12183781000 -1.1E-01  7.8E-03  2.5E-02
etot   22  N  Y  2  U    -932.06798819043 -4.1E+00  8.9E-03  1.1E-01
etot   23  N  Y  2  U    -936.21240671272  4.1E+00  1.1E-04  1.8E-02
etot   24  Y  Y  6  M    -936.20702899200 -5.4E-03  2.9E-03  1.9E-02
etot   25  N  Y  2  U    -936.23683247328  3.0E-02  1.8E-03  1.1E-02
etot   26  Y  Y  6  M    -936.27002724599  3.3E-02  5.6E-04  6.5E-03
etot   27  N  Y  2  U    -936.25791348371 -1.2E-02  1.3E-04  2.0E-02
etot   28  N  Y  2  U    -936.25296585907 -4.9E-03  4.9E-04  2.3E-02
etot   29  Y  Y  6  M    -936.26768071563  1.5E-02  6.2E-05  1.1E-02
etot   30  N  Y  2  U    -936.26821196523  5.3E-04  7.8E-05  1.0E-02
etot   31  Y  Y  6  M    -936.26946205700  1.3E-03  1.6E-04  8.5E-03
etot   32  Y  Y  6  M    -936.27113301815  1.7E-03  7.1E-05  4.4E-03
etot   33  Y  Y  6  M    -936.27154709563  4.1E-04  1.2E-04  2.6E-03
etot   34  Y  Y  6  M    -936.27174896310  2.0E-04  1.8E-05  3.6E-04
etot   35  N  Y  2  U    -936.27179120572  4.2E-05  7.0E-06  7.8E-05
etot   36  N  Y  2  U    -936.27179151818  3.1E-07  6.9E-06  4.4E-05
etot   37  N  Y  2  U    -936.27179147819 -4.0E-08  5.5E-06  7.2E-05
etot   38  N  Y  2  U    -936.27179165510  1.8E-07  4.5E-06  4.8E-05
etot   39  N  N  2  U    -936.27179173883  8.4E-08  0.0E+00  0.0E+00
  
  
 Energy components, in hartrees:
   (A)  Nuclear repulsion............    1753.64202553756
   (E)  Total one-electron terms.....   -4730.10391623596
   (I)  Total two-electron terms.....    2040.19009895957
   (L)  Electronic energy............   -2689.91381727639  (E+I)
   (N)  Total energy.................    -936.27179173883  (A+L)
   (O)  Gas phase energy.............    -936.27179173883
  
                                 Total             Coulomb       Exchange+Corr.
 Total two-electron terms    2040.19009895957    2174.27501701447    -134.08491805490
   Hamiltonian  1........    1045.80320055389    1093.54058776626     -47.73738721237
   Hamiltonian  2........    1033.37860010015    1080.73442924820     -47.35582914805
  
 SCFE: SCF energy: UDFT(b3lyp)      -936.27179173883 hartrees   iterations:  39
  
 
 Alpha HOMO energy:    -0.35806
 Alpha LUMO energy:    -0.18142
 
  Alpha Orbital energies (hartrees): 
   -19.27721   -14.55296   -14.52312   -14.43010   -10.41698   -10.39515
   -10.38116   -10.37068   -10.36721   -10.35946   -10.34604   -10.34410
   -10.34389   -10.34347   -10.33848   -10.33351   -10.33164   -10.33117
   -10.33058   -10.32318   -10.31513   -10.30150    -1.20420    -1.17136
    -1.16201    -1.03086    -1.01096    -1.00283    -0.95662    -0.92054
    -0.90468    -0.90057    -0.86741    -0.86417    -0.83466    -0.81736
    -0.78378    -0.76146    -0.74794    -0.72893    -0.72662    -0.69422
    -0.67734    -0.65785    -0.65411    -0.64335    -0.63459    -0.62142
    -0.61507    -0.60495    -0.59029    -0.58631    -0.58049    -0.57776
    -0.57075    -0.56400    -0.55818    -0.55653    -0.54959    -0.54593
    -0.54425    -0.53211    -0.53039    -0.52037    -0.50076    -0.49346
    -0.48995    -0.48511    -0.47780    -0.47547    -0.47257    -0.43550
    -0.39443    -0.38444    -0.37472    -0.37102    -0.36417    -0.35806
    -0.18142    -0.14906    -0.11720    -0.11037    -0.06484    -0.05340
    -0.05030    -0.03549    -0.02456    -0.02363
 
 
 Beta HOMO energy:    -0.33160
 Beta LUMO energy:    -0.31551
 
  Beta Orbital energies (hartrees): 
   -19.27587   -14.55151   -14.52318   -14.43054   -10.41746   -10.39431
   -10.37903   -10.37045   -10.36727   -10.35945   -10.34413   -10.34410
   -10.34242   -10.34096   -10.33844   -10.33183   -10.33154   -10.33046
   -10.32877   -10.32167   -10.31597   -10.30159    -1.20190    -1.16808
    -1.15955    -1.03021    -1.00749    -1.00015    -0.95402    -0.91884
    -0.90090    -0.89718    -0.86634    -0.85922    -0.83330    -0.81485
    -0.78208    -0.75999    -0.74610    -0.72653    -0.72411    -0.69262
    -0.67519    -0.65634    -0.65232    -0.64188    -0.63035    -0.62045
    -0.61261    -0.60348    -0.58854    -0.58428    -0.57858    -0.57601
    -0.56941    -0.56228    -0.55632    -0.55264    -0.54835    -0.54478
    -0.54265    -0.52976    -0.52831    -0.51575    -0.49947    -0.49122
    -0.48881    -0.48229    -0.47605    -0.47172    -0.46587    -0.41962
    -0.39289    -0.38267    -0.37192    -0.37049    -0.33160    -0.31551
    -0.17214    -0.13821    -0.11099    -0.09990    -0.06007    -0.04917
    -0.04467    -0.03098    -0.02403
 
  
  
    Unrestricted Spin Properties ...
    Sz*(Sz+1)      0.750
    <S**2> ...     0.757
  
  
  Peak memory usage:   6749 Mb
  
  end of program scf
   
 Time(scf)  user:      655.9  user+sys:      655.9  wallclock:       45.4
  
  start of program der1a
  
  Peak memory usage:   4838 Mb
  
  end of program der1a
   
 Time(der1a)  user:        2.0  user+sys:        2.0  wallclock:        0.5
  
  start of program rwr
  
  Peak memory usage:   4745 Mb
  
  end of program rwr
   
 Time(rwr)  user:       36.6  user+sys:       36.6  wallclock:        4.8
  
  start of program der1b
  
   
  forces (hartrees/bohr) : total     
   
 atom  label           x              y              z
 ---- --------   -------------  -------------  -------------
    1 C1         -3.955378E-03   7.750391E-03  -1.188806E-03
    2 C2         -2.976914E-02   4.933348E-03   5.535157E-03
    3 N3          1.066090E-02   2.289006E-02  -7.559147E-03
    4 C4          2.578793E-02   2.650986E-02   1.698471E-03
    5 C5          2.220122E-03  -2.173518E-02   3.980109E-03
    6 N6         -1.886283E-03  -5.774597E-03  -1.592847E-03
    7 C7          1.380207E-02  -1.884041E-02  -5.382327E-03
    8 C8          1.692101E-03   3.263872E-03   1.714699E-03
    9 C9         -4.278336E-03   9.343738E-03   1.975143E-03
   10 C10         3.399303E-03   4.870829E-04   5.799282E-03
   11 C11        -2.181273E-02   2.424307E-02   1.965907E-03
   12 C12         2.574828E-02  -1.014368E-02   2.271366E-03
   13 C13         3.091435E-03  -1.905993E-02  -3.083842E-03
   14 C14         1.332457E-02  -9.468109E-03  -3.578364E-03
   15 C15         3.708336E-04  -1.307408E-02   6.264537E-04
   16 C16        -9.043366E-03  -1.265282E-02   1.760419E-03
   17 C17         2.637370E-03   1.822445E-02  -1.528861E-03
   18 C18        -2.557541E-02  -2.856240E-02   2.609965E-03
   19 N19         1.301352E-02   1.330791E-02   2.031687E-03
   20 C20        -2.489278E-03   7.376949E-03   7.102381E-04
   21 C21        -1.905020E-02   3.434000E-02  -9.055734E-03
   22 O22         2.436848E-02  -4.472850E-02   4.178790E-03
   23 H23         1.578863E-02   2.459075E-03  -1.123739E-02
   24 H24        -1.065574E-03  -5.276437E-03  -4.747804E-03
   25 H25        -4.126100E-03   1.264712E-04   2.726926E-03
   26 H26         5.950185E-04  -2.740182E-03   3.878207E-04
   27 H27        -2.769034E-03   1.509047E-03   7.281430E-04
   28 H28        -1.711947E-03   1.087909E-03  -4.347660E-04
   29 H29        -4.244251E-03  -1.770667E-03   3.343572E-03
   30 H30        -6.563155E-03   8.595473E-03   5.607507E-03
   31 H31        -2.533957E-03   6.518942E-03  -6.028725E-03
   32 H32        -4.755160E-03  -7.825917E-03  -2.806184E-03
   33 H33         7.838377E-03   5.918982E-03   3.391173E-03
   34 H34        -6.138787E-03   2.689723E-04   2.315080E-03
   35 H35        -2.589941E-03   2.764891E-04   2.852175E-04
   36 H36        -4.467612E-03  -3.502929E-04   1.102940E-03
   37 H37        -1.003646E-03   1.114526E-03   2.820749E-04
   38 H38        -6.728118E-04  -1.327556E-03   1.460774E-04
   39 H39         1.935228E-03   2.628173E-04  -1.665577E-04
   40 H40        -3.144096E-03   1.322149E-03   2.057309E-03
   41 H41        -3.450998E-03   1.307596E-03  -8.136237E-04
 -------------   -------------  -------------  -------------
     total       -8.230126E-04   1.084268E-04   2.655125E-05
   
  Peak memory usage:   6742 Mb
  
  end of program der1b
   
 Time(der1b)  user:       50.4  user+sys:       50.4  wallclock:        3.8
  
  start of program geopt
  
 ----------------------------------------------------------------------------
  Geometry optimization step  1
  Total energy:      -936.27179173883 hartrees
 ----------------------------------------------------------------------------
  
  
  Level shifts adjusted to satisfy step-size constraints
   Step size:    0.3000089
   Cos(theta):   0.9399722
   Final level shift:  -4.1203609E-01
  
  gradient maximum:        1.3912E-01 .  (  4.5000E-04 )
  gradient rms:            2.4863E-02 .  (  3.0000E-04 )
  displacement maximum:    7.4741E-02 .  (  1.8000E-03 )
  displacement rms:        1.5233E-02 .  (  1.2000E-03 )
  
  predicted energy change:  -4.2042E-02
  step size:     0.18152
  trust radius:  0.30000
  
  molecular structure not yet converged...
  
  center of mass moved by:
     x:     1.5554E-02     y:    -8.5809E-03     z:    -4.6331E-03
  
  new geometry: 
                                   angstroms
  atom               x                 y                 z
  C1            1.3235520589      0.8894072239     -0.7153184164 
  C2            2.6826325545      0.3758937401     -0.3865912816 
  N3            3.6799628135      1.2454531527     -0.2701801830 
  C4            4.8095879785      0.5239827792     -0.0420523299 
  C5            4.5140125556     -0.8200076155      0.0140725158 
  N6            3.1429686540     -0.9368692282     -0.1397162833 
  C7            2.5407147578     -2.2801320630      0.0497931129 
  C8            1.0336119475     -2.4035004439      0.1979932731 
  C9            0.4294697147     -1.5778816447      1.3618826519 
  C10          -1.0585022345     -1.2911745495      1.0242942511 
  C11          -1.6700645656     -2.6415923253      0.9668400291 
  C12          -0.9267026792     -3.8108912145      0.7664108721 
  C13          -1.8081784545     -4.8889710877      0.9379660298 
  C14          -1.5911792635     -6.2745843756      0.9216006819 
  C15          -2.6817147362     -7.1136951044      1.1057476971 
  C16          -3.9575884035     -6.5792548189      1.3076023404 
  C17          -4.1926746347     -5.1921694034      1.3414500184 
  C18          -3.0952821575     -4.3526744851      1.1576221970 
  N19          -2.9856029580     -2.9617639032      1.1483019481 
  C20          -4.0654755276     -2.0010712607      1.3269312745 
  C21           0.5320197617     -3.8058671189      0.5278306460 
  O22           1.2516392365     -4.7931414301      0.6149242373 
  H23           1.3586564117      1.8847650217     -1.1599146567 
  H24           0.7465115485      1.0956217949      0.1876379353 
  H25           0.7873735658      0.2227075913     -1.3907727622 
  H26           5.7652599864      1.0139174771      0.0584984118 
  H27           5.1436198577     -1.6820474845      0.1780802143 
  H28           2.9705893495     -2.6958687573      0.9708480048 
  H29           2.9037095135     -2.9119530696     -0.7745045140 
  H30           0.5962967394     -2.1802384001     -0.7875369161 
  H31           1.0490067969     -0.7328662451      1.6389370950 
  H32           0.4586197714     -2.1561101756      2.2961450961 
  H33          -1.2113962890     -0.8323768389      0.0384163777 
  H34          -1.5126763524     -0.6359959747      1.7707352349 
  H35          -0.5873616185     -6.6591145719      0.7687444162 
  H36          -2.5229205473     -8.1853692389      1.0866222729 
  H37          -4.7929890768     -7.2569953330      1.4444104612 
  H38          -5.1907738836     -4.8033852339      1.5055872463 
  H39          -5.0127697537     -2.5181321544      1.4808396553 
  H40          -4.1425044370     -1.3729539559      0.4335947798 
  H41          -3.8569623747     -1.3723135351      2.1980307485 
   
  nuclear repulsion energy.......    1726.557845640 hartrees
  -------------------------------------------------
 /  end of geometry optimization iteration   1   /
 -------------------------------------------------
   
  Peak memory usage:   4726 Mb
  
  end of program geopt
   
 Time(geopt)  user:        7.3  user+sys:        7.3  wallclock:        0.6
  
  start of program onee
  
  smallest eigenvalue of S:    4.480E-04
  number of canonical orbitals.....          235
  Peak memory usage:   4838 Mb
  
  end of program onee
   
 Time(onee)  user:        2.2  user+sys:        2.2  wallclock:        0.5
  
  start of program probe
  
  Peak memory usage:   4756 Mb
  
  end of program probe
   
 Time(probe)  user:        2.2  user+sys:        2.2  wallclock:        0.4
  
  start of program grid
  
   grid     grid set  grid #  grid sym
  ------    --------  ------  --------
  coarse        0        0        1
  medium        2        1        1
  fine          0        0        1
  ultrafine     4        2        1
  charge       -1        3        1
  gradient      4        2        1
  density       0        0        1
  DFT-fine    -11        4        1
  DFT-med.    -10        5        1
  DFT-grad    -12        6        1
  DFT-der2      0        0        1
  DFT-cphf      0        0        1
  LMP2-enrg     4        2        1
  LMP2-grad     2        1        1
  DFT-cphf2     0        0        1
  PBF-dens      0        0        1
  plotting      0        0        1
  Rel-grad    -17        0        1
  
  number of gridpoints: 
     atom        C1       C2       N3       C4       C5       N6       C7
  grid # 1       77       99      112       95       94      101       86
  grid # 2      265      358      433      329      329      376      283
  grid # 3        6      119      712      222      195      113        6
  grid # 4     4304     4304     4304     4304     4304     4304     4304
  grid # 5     1192     1192     1192     1192     1192     1192     1192
  grid # 6     5226     5226     5226     5226     5226     5226     5226
   
  number of gridpoints: 
     atom        C8       C9      C10      C11      C12      C13      C14
  grid # 1       90       86       83       97       97       96       97
  grid # 2      310      291      289      349      362      357      337
  grid # 3        6        6        6       90      143      247      234
  grid # 4     4304     4304     4304     4304     4304     4304     4304
  grid # 5     1192     1192     1192     1192     1192     1192     1192
  grid # 6     5226     5226     5226     5226     5226     5226     5226
   
  number of gridpoints: 
     atom       C15      C16      C17      C18      N19      C20      C21
  grid # 1       97       97       97      100      104       77       95
  grid # 2      336      339      336      355      376      264      355
  grid # 3      229      231      232      258      138        6       66
  grid # 4     4304     4304     4304     4304     4304     4304     4304
  grid # 5     1192     1192     1192     1192     1192     1192     1192
  grid # 6     5226     5226     5226     5226     5226     5226     5226
   
  number of gridpoints: 
     atom       O22      H23      H24      H25      H26      H27      H28
  grid # 1      123      111      106      107      118      115      105
  grid # 2      497      441      426      428      465      450      430
  grid # 3      941     1132      641      710     1564     1197      631
  grid # 4     4304     4304     4304     4304     4304     4304     4304
  grid # 5     1192     1192     1192     1192     1192     1192     1192
  grid # 6     5226     5226     5226     5226     5226     5226     5226
   
  number of gridpoints: 
     atom       H29      H30      H31      H32      H33      H34      H35
  grid # 1      108      108      108      110      105      109      115
  grid # 2      438      421      418      427      424      434      441
  grid # 3      871      527      509      788      495      711     1029
  grid # 4     4304     4304     4304     4304     4304     4304     4304
  grid # 5     1192     1192     1192     1192     1192     1192     1192
  grid # 6     5226     5226     5226     5226     5226     5226     5226
   
  number of gridpoints: 
     atom       H36      H37      H38      H39      H40      H41    total
  grid # 1      118      118      115      109      111      111     4207
  grid # 2      451      451      438      431      442      436    15818
  grid # 3     1334     1323     1015      787     1069      966    21505
  grid # 4     4304     4304     4304     4304     4304     4304   176464
  grid # 5     1192     1192     1192     1192     1192     1192    48872
  grid # 6     5226     5226     5226     5226     5226     5226   214266
   
  Peak memory usage:   4788 Mb
  
  end of program grid
   
 Time(grid)  user:       21.4  user+sys:       21.4  wallclock:        2.0
  
  start of program rwr
  
  Peak memory usage:   4745 Mb
  
  end of program rwr
   
 Time(rwr)  user:       48.5  user+sys:       48.5  wallclock:        4.5
  
  start of program scf
  
 Energy computed with NOPS off.
  
       i  u  d  i  g                   
       t  p  i  c  r                                 RMS    maximum
       e  d  i  u  i                       energy  density   DIIS  
       r  t  s  t  d       total energy    change  change    error 
  
etot    1  N  N  2  U    -936.22595868199           1.6E-03  2.0E-02
etot    2  Y  Y  6  M    -936.29159734984  6.6E-02  1.7E-03  9.8E-03
etot    3  N  Y  2  U    -936.26035118498 -3.1E-02  1.6E-03  1.4E-02
etot    4  N  Y  2  U    -936.29299628144  3.3E-02  5.6E-04  7.8E-03
etot    5  Y  Y  6  M    -936.29378860731  7.9E-04  3.5E-04  6.2E-03
etot    6  Y  Y  6  M    -936.29510579822  1.3E-03  5.8E-05  2.1E-03
etot    7  Y  Y  6  M    -936.29521883300  1.1E-04  2.9E-05  6.6E-04
etot    8  N  Y  2  U    -936.29526993059  5.1E-05  7.4E-06  8.1E-05
etot    9  N  Y  2  U    -936.29527001662  8.6E-08  4.9E-06  1.2E-04
etot   10  N  N  2  U    -936.29527049945  4.8E-07  0.0E+00  0.0E+00
  
  
 Energy components, in hartrees:
   (A)  Nuclear repulsion............    1726.55784563992
   (E)  Total one-electron terms.....   -4676.39931281002
   (I)  Total two-electron terms.....    2013.54619667065
   (L)  Electronic energy............   -2662.85311613937  (E+I)
   (N)  Total energy.................    -936.29527049945  (A+L)
   (O)  Gas phase energy.............    -936.29527049945
  
                                 Total             Coulomb       Exchange+Corr.
 Total two-electron terms    2013.54619667065    2147.50316580385    -133.95696913320
   Hamiltonian  1........    1032.37226118880    1080.06248562946     -47.69022444067
   Hamiltonian  2........    1020.13170579491    1067.44068017438     -47.30897437947
  
 SCFE: SCF energy: UDFT(b3lyp)      -936.29527049945 hartrees   iterations:  10
  
 
 Alpha HOMO energy:    -0.35775
 Alpha LUMO energy:    -0.18100
 
  Alpha Orbital energies (hartrees): 
   -19.27492   -14.55197   -14.52565   -14.43371   -10.41519   -10.39511
   -10.38613   -10.36925   -10.36535   -10.36039   -10.34881   -10.34474
   -10.34376   -10.34086   -10.33925   -10.33168   -10.33139   -10.33081
   -10.33010   -10.32692   -10.31417   -10.30260    -1.19332    -1.16340
    -1.15637    -1.02737    -1.00429    -0.99727    -0.95013    -0.91618
    -0.90293    -0.89600    -0.86380    -0.86001    -0.83055    -0.81614
    -0.77953    -0.75726    -0.74479    -0.72661    -0.72177    -0.69170
    -0.67460    -0.65285    -0.65179    -0.64088    -0.62931    -0.61791
    -0.61133    -0.60050    -0.58491    -0.58136    -0.57693    -0.57400
    -0.56815    -0.56302    -0.55370    -0.55196    -0.54578    -0.54429
    -0.54301    -0.53086    -0.52564    -0.51408    -0.49842    -0.49634
    -0.48685    -0.48564    -0.48172    -0.47349    -0.47199    -0.43017
    -0.39520    -0.38289    -0.37313    -0.37255    -0.36016    -0.35775
    -0.18100    -0.14816    -0.11588    -0.11412    -0.06548    -0.05698
    -0.04769    -0.03222    -0.02388    -0.02171
 
 
 Beta HOMO energy:    -0.32841
 Beta LUMO energy:    -0.31347
 
  Beta Orbital energies (hartrees): 
   -19.27351   -14.55046   -14.52582   -14.43408   -10.41568   -10.39440
   -10.38376   -10.36908   -10.36542   -10.36038   -10.34665   -10.34476
   -10.34094   -10.33985   -10.33922   -10.33213   -10.33130   -10.32900
   -10.32758   -10.32539   -10.31495   -10.30270    -1.19089    -1.16014
    -1.15371    -1.02670    -1.00105    -0.99482    -0.94767    -0.91460
    -0.89866    -0.89268    -0.86285    -0.85549    -0.82887    -0.81349
    -0.77793    -0.75584    -0.74305    -0.72397    -0.71949    -0.69006
    -0.67256    -0.65149    -0.64998    -0.63935    -0.62526    -0.61661
    -0.60933    -0.59904    -0.58381    -0.57936    -0.57447    -0.57159
    -0.56664    -0.56125    -0.55179    -0.54902    -0.54438    -0.54262
    -0.54123    -0.52955    -0.52263    -0.50984    -0.49715    -0.49495
    -0.48583    -0.48345    -0.47868    -0.47123    -0.46352    -0.41489
    -0.39368    -0.38111    -0.37252    -0.36983    -0.32841    -0.31347
    -0.17223    -0.13783    -0.11000    -0.10235    -0.06007    -0.04741
    -0.04671    -0.02854    -0.02344
 
  
  
    Unrestricted Spin Properties ...
    Sz*(Sz+1)      0.750
    <S**2> ...     0.757
  
  
  Peak memory usage:   6749 Mb
  
  end of program scf
   
 Time(scf)  user:      185.7  user+sys:      185.7  wallclock:       13.5
  
  start of program der1a
  
  Peak memory usage:   4838 Mb
  
  end of program der1a
   
 Time(der1a)  user:        2.5  user+sys:        2.5  wallclock:        0.5
  
  start of program rwr
  
  Peak memory usage:   4745 Mb
  
  end of program rwr
   
 Time(rwr)  user:       34.6  user+sys:       34.6  wallclock:        4.7
  
  start of program der1b
  
   
  forces (hartrees/bohr) : total     
   
 atom  label           x              y              z
 ---- --------   -------------  -------------  -------------
    1 C1         -5.579066E-03  -4.489622E-03   2.196397E-03
    2 C2         -1.960830E-02   5.782636E-03   3.631760E-03
    3 N3          8.772576E-03   1.107562E-02  -6.084495E-03
    4 C4          1.810875E-02   1.574358E-02  -5.553876E-04
    5 C5         -1.297709E-03  -1.673276E-02   6.428511E-03
    6 N6          1.297161E-03   6.315413E-04  -1.183853E-03
    7 C7          6.365542E-03  -1.692941E-02   3.089886E-03
    8 C8          2.348704E-03   4.665517E-03  -3.593887E-03
    9 C9         -1.279446E-03   1.093877E-02  -2.593743E-03
   10 C10         4.096768E-03   5.771691E-04   4.831167E-03
   11 C11        -1.624051E-02   1.111957E-02  -6.209066E-04
   12 C12         1.875611E-02  -5.117975E-03   4.015744E-03
   13 C13         3.853172E-03  -1.145624E-02  -2.891000E-03
   14 C14         7.332425E-03  -3.976182E-03  -2.814617E-03
   15 C15         8.706510E-04  -6.914937E-03   4.739894E-05
   16 C16        -5.645801E-03  -8.441153E-03   9.525486E-04
   17 C17         2.036349E-03   1.231833E-02  -7.891902E-04
   18 C18        -1.596009E-02  -2.185177E-02   4.581901E-04
   19 N19         1.041337E-02   8.979557E-03   2.062427E-03
   20 C20        -1.638718E-03   5.551091E-03   8.708614E-04
   21 C21        -1.522682E-02   1.784655E-02  -6.117466E-03
   22 O22         1.451960E-02  -2.481567E-02   2.749762E-04
   23 H23         1.195824E-02  -2.197033E-03  -6.772667E-03
   24 H24        -5.930719E-03  -8.773925E-03   4.727839E-03
   25 H25        -5.279611E-03  -1.024392E-03   1.288991E-03
   26 H26         1.635948E-04  -2.484077E-03   6.600696E-04
   27 H27        -1.220543E-03   1.544570E-03   7.542213E-04
   28 H28         3.994268E-03   1.500351E-03  -2.002647E-03
   29 H29        -4.421559E-03   1.416860E-04   2.360830E-03
   30 H30        -6.312392E-03   9.473324E-03   4.588190E-03
   31 H31        -2.660060E-03   1.418208E-02  -9.417296E-03
   32 H32        -1.728598E-03  -4.906059E-03  -2.435279E-03
   33 H33         7.318693E-03   7.616636E-03   8.404308E-04
   34 H34        -3.994131E-03  -2.631758E-04   1.274648E-03
   35 H35        -1.971688E-03   1.278718E-04   1.446346E-04
   36 H36        -3.229709E-03  -3.420747E-04   8.974072E-04
   37 H37        -7.502095E-04   9.428404E-04   2.601520E-04
   38 H38        -6.028915E-04  -1.327103E-03   1.147355E-04
   39 H39         1.467176E-03  -1.390126E-04  -8.901308E-05
   40 H40        -2.218187E-03   5.352574E-04   1.497310E-03
   41 H41        -2.476933E-03   6.271960E-04  -3.595544E-04
 -------------   -------------  -------------  -------------
     total       -1.600557E-03  -2.608290E-04  -5.167492E-05
   
  Peak memory usage:   6742 Mb
  
  end of program der1b
   
 Time(der1b)  user:       50.5  user+sys:       50.5  wallclock:        3.6
  
  start of program geopt
  
 ----------------------------------------------------------------------------
  Geometry optimization step  2
  Total energy:      -936.29527049945 hartrees
 ----------------------------------------------------------------------------
  
  
  Level shifts adjusted to satisfy step-size constraints
   Step size:    0.3000044
   Cos(theta):   0.8842573
   Final level shift:  -1.3721098E-01
  
  energy change:          -2.3479E-02 .  (  5.0000E-05 )
  gradient maximum:        3.1466E-02 .  (  4.5000E-04 )
  gradient rms:            8.9737E-03 .  (  3.0000E-04 )
  displacement maximum:    1.0108E-01 .  (  1.8000E-03 )
  displacement rms:        2.5175E-02 .  (  1.2000E-03 )
  
  predicted energy change:  -2.0358E-02
  step size:     0.29999
  trust radius:  0.30000
  
  molecular structure not yet converged...
  
  center of mass moved by:
     x:     1.7447E-02     y:     5.7378E-03     z:    -9.9432E-03
  
  new geometry: 
                                   angstroms
  atom               x                 y                 z
  C1            1.3387627622      0.7848772492     -0.7853103752 
  C2            2.7141614695      0.3592281310     -0.4146327983 
  N3            3.7348766789      1.2439213600     -0.3553502886 
  C4            4.8738154754      0.5272315401     -0.0743573095 
  C5            4.5514579716     -0.8284839410      0.0558791515 
  N6            3.1759970347     -0.9411501269     -0.1123747174 
  C7            2.5419906096     -2.2666001504      0.1085436647 
  C8            1.0210583132     -2.3246110529      0.2607006121 
  C9            0.3885066059     -1.4602763997      1.3916982056 
  C10          -1.1026377639     -1.2229636193      1.0624772128 
  C11          -1.6953989057     -2.6108555530      0.9982457824 
  C12          -0.9236236834     -3.7956062785      0.7788342813 
  C13          -1.8012552725     -4.9189696388      0.9173787797 
  C14          -1.5948926640     -6.3203260803      0.8606921268 
  C15          -2.7059246138     -7.1600304008      1.0323561977 
  C16          -3.9827143518     -6.6181701615      1.2588358853 
  C17          -4.2025058828     -5.2202613098      1.3313092954 
  C18          -3.1023589274     -4.3881757981      1.1636772951 
  N19          -2.9991762760     -2.9697218013      1.1929164532 
  C20          -4.1075853887     -2.0332386271      1.4178553912 
  C21           0.5337732288     -3.7548040892      0.5463858148 
  O22           1.2665976065     -4.7670702486      0.5777747664 
  H23           1.4095804503      1.7359265298     -1.3181692090 
  H24           0.7354395979      1.0047064875      0.1045025050 
  H25           0.8100442702      0.0479165079     -1.3950085965 
  H26           5.8367925136      1.0041461815      0.0042932863 
  H27           5.1624535732     -1.6873973577      0.2794823978 
  H28           2.9630861991     -2.6626703292      1.0410273342 
  H29           2.8637259940     -2.9382988253     -0.6951957576 
  H30           0.5646404482     -2.0492639732     -0.7030280146 
  H31           0.9735592240     -0.5600013473      1.5939477661 
  H32           0.4460182025     -2.0113052495      2.3417705570 
  H33          -1.2252031459     -0.7353784454      0.0845822422 
  H34          -1.5992489849     -0.6066268129      1.8198337971 
  H35          -0.5991030914     -6.7123985213      0.6931154336 
  H36          -2.5779885782     -8.2348945416      0.9887575113 
  H37          -4.8277189494     -7.2859759824      1.3851868021 
  H38          -5.1981915793     -4.8327822252      1.5129228853 
  H39          -5.0327054792     -2.5854891022      1.5719627471 
  H40          -4.2326428480     -1.3782929982      0.5508679306 
  H41          -3.9174987581     -1.4195669299      2.3031450424 
   
  nuclear repulsion energy.......    1715.237959847 hartrees
  -------------------------------------------------
 /  end of geometry optimization iteration   2   /
 -------------------------------------------------
   
  Peak memory usage:   4727 Mb
  
  end of program geopt
   
 Time(geopt)  user:        7.5  user+sys:        7.5  wallclock:        0.6
  
  start of program onee
  
  smallest eigenvalue of S:    4.857E-04
  number of canonical orbitals.....          235
  Peak memory usage:   4838 Mb
  
  end of program onee
   
 Time(onee)  user:        3.1  user+sys:        3.1  wallclock:        0.5
  
  start of program probe
  
  Peak memory usage:   4756 Mb
  
  end of program probe
   
 Time(probe)  user:        2.3  user+sys:        2.3  wallclock:        0.5
  
  start of program grid
  
   grid     grid set  grid #  grid sym
  ------    --------  ------  --------
  coarse        0        0        1
  medium        2        1        1
  fine          0        0        1
  ultrafine     4        2        1
  charge       -1        3        1
  gradient      4        2        1
  density       0        0        1
  DFT-fine    -11        4        1
  DFT-med.    -10        5        1
  DFT-grad    -12        6        1
  DFT-der2      0        0        1
  DFT-cphf      0        0        1
  LMP2-enrg     4        2        1
  LMP2-grad     2        1        1
  DFT-cphf2     0        0        1
  PBF-dens      0        0        1
  plotting      0        0        1
  Rel-grad    -17        0        1
  
  number of gridpoints: 
     atom        C1       C2       N3       C4       C5       N6       C7
  grid # 1       79       98      113       95       95      101       86
  grid # 2      266      355      439      331      330      382      284
  grid # 3        6      115      745      226      205      112        6
  grid # 4     4304     4304     4304     4304     4304     4304     4304
  grid # 5     1192     1192     1192     1192     1192     1192     1192
  grid # 6     5226     5226     5226     5226     5226     5226     5226
   
  number of gridpoints: 
     atom        C8       C9      C10      C11      C12      C13      C14
  grid # 1       91       87       84       96       99      100       97
  grid # 2      317      294      289      360      367      369      338
  grid # 3        6        6        6       98      156      250      234
  grid # 4     4304     4304     4304     4304     4304     4304     4304
  grid # 5     1192     1192     1192     1192     1192     1192     1192
  grid # 6     5226     5226     5226     5226     5226     5226     5226
   
  number of gridpoints: 
     atom       C15      C16      C17      C18      N19      C20      C21
  grid # 1       97       97       97      100      102       78       96
  grid # 2      338      341      336      369      377      261      354
  grid # 3      230      233      231      246      149        6       74
  grid # 4     4304     4304     4304     4304     4304     4304     4304
  grid # 5     1192     1192     1192     1192     1192     1192     1192
  grid # 6     5226     5226     5226     5226     5226     5226     5226
   
  number of gridpoints: 
     atom       O22      H23      H24      H25      H26      H27      H28
  grid # 1      123      111      104      105      118      115      105
  grid # 2      496      441      422      422      465      453      430
  grid # 3      955     1144      602      666     1576     1203      651
  grid # 4     4304     4304     4304     4304     4304     4304     4304
  grid # 5     1192     1192     1192     1192     1192     1192     1192
  grid # 6     5226     5226     5226     5226     5226     5226     5226
   
  number of gridpoints: 
     atom       H29      H30      H31      H32      H33      H34      H35
  grid # 1      107      103      108      109      107      108      115
  grid # 2      436      417      417      427      425      435      446
  grid # 3      855      459      517      805      519      722     1059
  grid # 4     4304     4304     4304     4304     4304     4304     4304
  grid # 5     1192     1192     1192     1192     1192     1192     1192
  grid # 6     5226     5226     5226     5226     5226     5226     5226
   
  number of gridpoints: 
     atom       H36      H37      H38      H39      H40      H41    total
  grid # 1      118      118      114      109      111      110     4206
  grid # 2      452      451      438      430      443      436    15879
  grid # 3     1342     1323      995      764     1079      971    21547
  grid # 4     4304     4304     4304     4304     4304     4304   176464
  grid # 5     1192     1192     1192     1192     1192     1192    48872
  grid # 6     5226     5226     5226     5226     5226     5226   214266
   
  Peak memory usage:   4788 Mb
  
  end of program grid
   
 Time(grid)  user:       22.3  user+sys:       22.3  wallclock:        1.8
  
  start of program rwr
  
  Peak memory usage:   4745 Mb
  
  end of program rwr
   
 Time(rwr)  user:       45.6  user+sys:       45.6  wallclock:        4.2
  
  start of program scf
  
 Energy computed with NOPS off.
  
       i  u  d  i  g                   
       t  p  i  c  r                                 RMS    maximum
       e  d  i  u  i                       energy  density   DIIS  
       r  t  s  t  d       total energy    change  change    error 
  
etot    1  N  N  2  U    -936.29530134741           9.0E-04  8.8E-03
etot    2  Y  Y  6  M    -936.31057411432  1.5E-02  3.7E-04  2.2E-03
etot    3  N  Y  2  U    -936.30936412258 -1.2E-03  7.4E-04  4.0E-03
etot    4  Y  Y  6  M    -936.30479350970 -4.6E-03  6.1E-04  1.6E-02
etot    5  N  Y  2  U    -936.31110495224  6.3E-03  8.3E-05  1.9E-03
etot    6  Y  Y  6  M    -936.31124998965  1.5E-04  1.7E-05  3.0E-04
etot    7  N  Y  2  U    -936.31125759531  7.6E-06  8.7E-06  2.6E-04
etot    8  N  Y  2  U    -936.31125966789  2.1E-06  5.3E-06  1.4E-04
etot    9  N  Y  2  U    -936.31126056157  8.9E-07  4.7E-06  4.9E-05
etot   10  N  N  2  U    -936.31126082167  2.6E-07  0.0E+00  0.0E+00
  
  
 Energy components, in hartrees:
   (A)  Nuclear repulsion............    1715.23795984687
   (E)  Total one-electron terms.....   -4654.01164311193
   (I)  Total two-electron terms.....    2002.46242244340
   (L)  Electronic energy............   -2651.54922066854  (E+I)
   (N)  Total energy.................    -936.31126082167  (A+L)
   (O)  Gas phase energy.............    -936.31126082167
  
                                 Total             Coulomb       Exchange+Corr.
 Total two-electron terms    2002.46242244340    2136.24754284553    -133.78512040213
   Hamiltonian  1........    1026.77377797955    1074.40149724320     -47.62771926365
   Hamiltonian  2........    1014.60035121829    1061.84604560233     -47.24569438404
  
 SCFE: SCF energy: UDFT(b3lyp)      -936.31126082167 hartrees   iterations:  10
  
 
 Alpha HOMO energy:    -0.35730
 Alpha LUMO energy:    -0.18556
 
  Alpha Orbital energies (hartrees): 
   -19.27450   -14.55492   -14.52660   -14.43947   -10.41448   -10.40147
   -10.38938   -10.37233   -10.36554   -10.36093   -10.35289   -10.34989
   -10.34896   -10.34253   -10.34084   -10.33834   -10.33355   -10.33261
   -10.33206   -10.33155   -10.31728   -10.30667    -1.17718    -1.15372
    -1.14948    -1.02189    -0.99744    -0.99045    -0.94419    -0.91241
    -0.90274    -0.89276    -0.86342    -0.85826    -0.82858    -0.81437
    -0.77640    -0.75422    -0.74212    -0.72629    -0.71860    -0.68758
    -0.67528    -0.65178    -0.64949    -0.63776    -0.62490    -0.61607
    -0.60970    -0.59725    -0.58307    -0.58061    -0.57465    -0.57355
    -0.56928    -0.56052    -0.55180    -0.54890    -0.54415    -0.54216
    -0.53964    -0.53045    -0.51937    -0.51241    -0.50511    -0.49878
    -0.48815    -0.48433    -0.47920    -0.47535    -0.47145    -0.42544
    -0.39478    -0.38300    -0.37441    -0.37380    -0.35807    -0.35730
    -0.18556    -0.15151    -0.11855    -0.11766    -0.07109    -0.06492
    -0.04770    -0.03243    -0.02254    -0.02132
 
 
 Beta HOMO energy:    -0.32674
 Beta LUMO energy:    -0.31203
 
  Beta Orbital energies (hartrees): 
   -19.27269   -14.55331   -14.52691   -14.43984   -10.41511   -10.40090
   -10.38689   -10.37216   -10.36561   -10.36092   -10.35057   -10.34898
   -10.34692   -10.34250   -10.33997   -10.33889   -10.33200   -10.33111
   -10.33110   -10.32983   -10.31806   -10.30679    -1.17403    -1.15039
    -1.14687    -1.02126    -0.99455    -0.98809    -0.94165    -0.91053
    -0.89897    -0.88975    -0.86233    -0.85394    -0.82637    -0.81194
    -0.77473    -0.75288    -0.74050    -0.72356    -0.71645    -0.68599
    -0.67335    -0.65028    -0.64781    -0.63632    -0.62109    -0.61491
    -0.60738    -0.59588    -0.58205    -0.57922    -0.57317    -0.57079
    -0.56692    -0.55878    -0.54996    -0.54592    -0.54186    -0.54075
    -0.53784    -0.52922    -0.51650    -0.50975    -0.50164    -0.49749
    -0.48631    -0.48285    -0.47835    -0.47160    -0.46228    -0.41020
    -0.39338    -0.38087    -0.37394    -0.37131    -0.32674    -0.31203
    -0.17689    -0.14150    -0.11298    -0.10540    -0.06468    -0.05498
    -0.04672    -0.02876    -0.02194
 
  
  
    Unrestricted Spin Properties ...
    Sz*(Sz+1)      0.750
    <S**2> ...     0.758
  
  
  Peak memory usage:   6749 Mb
  
  end of program scf
   
 Time(scf)  user:      190.5  user+sys:      190.5  wallclock:       13.3
  
  start of program der1a
  
  Peak memory usage:   4838 Mb
  
  end of program der1a
   
 Time(der1a)  user:        3.3  user+sys:        3.3  wallclock:        0.5
  
  start of program rwr
  
  Peak memory usage:   4745 Mb
  
  end of program rwr
   
 Time(rwr)  user:       34.2  user+sys:       34.2  wallclock:        5.0
  
  start of program der1b
  
   
  forces (hartrees/bohr) : total     
   
 atom  label           x              y              z
 ---- --------   -------------  -------------  -------------
    1 C1         -1.160921E-03   2.603368E-03   3.832316E-03
    2 C2          1.614722E-03   7.701672E-04   2.907766E-03
    3 N3          6.286491E-04  -4.475108E-03  -3.826552E-03
    4 C4         -6.334578E-03   6.838512E-05  -3.261919E-03
    5 C5         -4.027391E-03   5.715332E-04   3.977197E-03
    6 N6          9.720264E-03   4.372811E-03   8.854859E-04
    7 C7         -7.648926E-04  -5.906147E-03   7.035478E-03
    8 C8          1.126225E-03   2.047946E-04  -3.443535E-03
    9 C9          8.600372E-03   3.620052E-03   4.227043E-03
   10 C10        -1.933684E-03  -1.191882E-02   2.696609E-03
   11 C11        -5.460290E-03  -5.445609E-03  -3.635069E-03
   12 C12         4.987990E-03  -2.683501E-03   6.173397E-03
   13 C13         2.785993E-03   3.055540E-03  -7.324846E-04
   14 C14        -3.925994E-03   3.323932E-03  -3.407586E-04
   15 C15         1.011296E-03   3.921167E-03  -6.634827E-05
   16 C16         9.298952E-04  -6.971374E-04  -1.425073E-04
   17 C17         1.693558E-03   2.519709E-03  -4.570882E-04
   18 C18        -8.156085E-04  -6.891181E-03  -1.871984E-03
   19 N19         5.722964E-03   3.125841E-03   1.280288E-03
   20 C20         1.423635E-04   1.570283E-03   2.907205E-04
   21 C21        -8.106499E-03  -2.040820E-03  -4.039880E-03
   22 O22        -2.809331E-03   6.472863E-03  -1.714283E-03
   23 H23         1.728505E-03  -2.327039E-03  -3.056797E-03
   24 H24        -1.021062E-03  -1.715900E-03  -4.720107E-04
   25 H25         2.552391E-04   1.198125E-03  -1.133528E-03
   26 H26        -1.522747E-04  -8.684919E-04   6.308101E-04
   27 H27         5.121579E-04   2.084786E-04   5.806105E-04
   28 H28         2.980696E-03   3.348848E-05  -2.053216E-03
   29 H29        -2.489820E-03   3.755972E-04   3.364547E-04
   30 H30        -8.145291E-04   2.291217E-03   1.289465E-03
   31 H31        -4.962593E-03   4.625398E-03  -6.546728E-03
   32 H32        -1.731815E-04  -8.618196E-04  -1.128075E-03
   33 H33         1.069779E-03   3.278863E-03   1.732435E-03
   34 H34        -3.870564E-04   8.062107E-05  -7.089045E-04
   35 H35        -4.142075E-04  -1.218549E-04  -1.790841E-04
   36 H36        -4.029762E-04  -7.637920E-06   2.926829E-04
   37 H37        -7.923713E-05   4.677922E-04   1.255406E-04
   38 H38        -3.210425E-04  -9.026017E-04   4.982359E-05
   39 H39         3.640859E-04  -8.272539E-04   5.405221E-05
   40 H40        -1.368405E-04  -4.868801E-04  -1.404577E-04
   41 H41        -2.610432E-05  -6.458638E-04   2.022643E-04
 -------------   -------------  -------------  -------------
     total       -8.453599E-04  -6.364004E-05  -3.507731E-04
   
  Peak memory usage:   6742 Mb
  
  end of program der1b
   
 Time(der1b)  user:       51.1  user+sys:       51.1  wallclock:        3.6
  
  start of program geopt
  
 ----------------------------------------------------------------------------
  Geometry optimization step  3
  Total energy:      -936.31126082167 hartrees
 ----------------------------------------------------------------------------
  
  
  Level shifts adjusted to satisfy step-size constraints
   Step size:    0.3000109
   Cos(theta):   0.8263959
   Final level shift:  -6.8043119E-02
  
  energy change:          -1.5990E-02 .  (  5.0000E-05 )
  gradient maximum:        1.6617E-02 .  (  4.5000E-04 )
  gradient rms:            3.3423E-03 .  (  3.0000E-04 )
  displacement maximum:    1.3295E-01 .  (  1.8000E-03 )
  displacement rms:        2.5175E-02 .  (  1.2000E-03 )
  
  predicted energy change:  -7.9988E-03
  step size:     0.29999
  trust radius:  0.30000
  
  molecular structure not yet converged...
  
  center of mass moved by:
     x:    -6.7231E-03     y:     1.2380E-02     z:    -1.3689E-02
  
  new geometry: 
                                   angstroms
  atom               x                 y                 z
  C1            1.3524035865      0.5625764794     -1.0616199141 
  C2            2.7105868251      0.2709981545     -0.5308594595 
  N3            3.6854457189      1.1998277717     -0.5120084367 
  C4            4.8176844421      0.5746828803     -0.0552117188 
  C5            4.5431729392     -0.7681324630      0.2209587819 
  N6            3.2009973611     -0.9569362999     -0.0514047980 
  C7            2.5649875408     -2.2667565160      0.2352806666 
  C8            1.0387371351     -2.2887771315      0.3456967213 
  C9            0.4087690981     -1.4253766257      1.4798926436 
  C10          -1.0970018694     -1.2250551819      1.1945069681 
  C11          -1.6858567406     -2.6085465897      1.0821615483 
  C12          -0.9200332781     -3.7751675344      0.7975811469 
  C13          -1.8005832540     -4.8951257295      0.8757704449 
  C14          -1.6107862657     -6.2850932132      0.7262629653 
  C15          -2.7227347133     -7.1245832741      0.8642170722 
  C16          -3.9910306212     -6.5965816908      1.1463825898 
  C17          -4.1984843262     -5.2075214564      1.3094875291 
  C18          -3.0941251367     -4.3813295986      1.1752605953 
  N19          -2.9793492920     -2.9688707344      1.2911680762 
  C20          -4.0772498589     -2.0458596553      1.6030929764 
  C21           0.5229808908     -3.7206595015      0.5527793476 
  O22           1.2484531386     -4.7313630741      0.5181222528 
  H23           1.4385416796      1.4330310262     -1.7149756536 
  H24           0.6540050019      0.8475803985     -0.2631857252 
  H25           0.9191979936     -0.2723002803     -1.6181092488 
  H26           5.7537599692      1.0979828179      0.0422945376 
  H27           5.1674732886     -1.5599771734      0.6017349362 
  H28           2.9798568151     -2.6070049622      1.1913776773 
  H29           2.8830502231     -2.9816688677     -0.5290952680 
  H30           0.6075471941     -1.9740825400     -0.6174085758 
  H31           0.9480825108     -0.4834284979      1.6128340250 
  H32           0.5323511775     -1.9469163608      2.4393088491 
  H33          -1.2436427801     -0.6922359003      0.2437545897 
  H34          -1.5931186695     -0.6500729954      1.9835318204 
  H35          -0.6230341343     -6.6750902736      0.5150417722 
  H36          -2.6049665428     -8.1955166662      0.7517650544 
  H37          -4.8383923701     -7.2653628614      1.2463475864 
  H38          -5.1893668382     -4.8293493711      1.5321721875 
  H39          -4.9955411347     -2.6120259356      1.7479170161 
  H40          -4.2267616189     -1.3407591036      0.7808271687 
  H41          -3.8621950833     -1.4914527001      2.5208740130 
   
  nuclear repulsion energy.......    1719.437157944 hartrees
  -------------------------------------------------
 /  end of geometry optimization iteration   3   /
 -------------------------------------------------
   
  Peak memory usage:   4727 Mb
  
  end of program geopt
   
 Time(geopt)  user:        7.1  user+sys:        7.1  wallclock:        0.6
  
  start of program onee
  
  smallest eigenvalue of S:    4.652E-04
  number of canonical orbitals.....          235
  Peak memory usage:   4838 Mb
  
  end of program onee
   
 Time(onee)  user:        3.3  user+sys:        3.3  wallclock:        0.8
  
  start of program probe
  
  Peak memory usage:   4756 Mb
  
  end of program probe
   
 Time(probe)  user:        1.8  user+sys:        1.8  wallclock:        0.4
  
  start of program grid
  
   grid     grid set  grid #  grid sym
  ------    --------  ------  --------
  coarse        0        0        1
  medium        2        1        1
  fine          0        0        1
  ultrafine     4        2        1
  charge       -1        3        1
  gradient      4        2        1
  density       0        0        1
  DFT-fine    -11        4        1
  DFT-med.    -10        5        1
  DFT-grad    -12        6        1
  DFT-der2      0        0        1
  DFT-cphf      0        0        1
  LMP2-enrg     4        2        1
  LMP2-grad     2        1        1
  DFT-cphf2     0        0        1
  PBF-dens      0        0        1
  plotting      0        0        1
  Rel-grad    -17        0        1
  
  number of gridpoints: 
     atom        C1       C2       N3       C4       C5       N6       C7
  grid # 1       79       98      113       96       95      103       86
  grid # 2      263      356      442      330      329      376      285
  grid # 3        6      107      743      224      204      103        6
  grid # 4     4304     4304     4304     4304     4304     4304     4304
  grid # 5     1192     1192     1192     1192     1192     1192     1192
  grid # 6     5226     5226     5226     5226     5226     5226     5226
   
  number of gridpoints: 
     atom        C8       C9      C10      C11      C12      C13      C14
  grid # 1       90       87       85       97      101       98       97
  grid # 2      317      293      288      360      361      364      337
  grid # 3        6        6        6      105      168      250      233
  grid # 4     4304     4304     4304     4304     4304     4304     4304
  grid # 5     1192     1192     1192     1192     1192     1192     1192
  grid # 6     5226     5226     5226     5226     5226     5226     5226
   
  number of gridpoints: 
     atom       C15      C16      C17      C18      N19      C20      C21
  grid # 1       97       97       97      100      102       77       96
  grid # 2      336      339      338      370      377      263      353
  grid # 3      230      231      232      249      151        6       77
  grid # 4     4304     4304     4304     4304     4304     4304     4304
  grid # 5     1192     1192     1192     1192     1192     1192     1192
  grid # 6     5226     5226     5226     5226     5226     5226     5226
   
  number of gridpoints: 
     atom       O22      H23      H24      H25      H26      H27      H28
  grid # 1      123      111      106      104      118      116      106
  grid # 2      495      439      419      425      465      452      431
  grid # 3      943     1141      591      694     1570     1226      653
  grid # 4     4304     4304     4304     4304     4304     4304     4304
  grid # 5     1192     1192     1192     1192     1192     1192     1192
  grid # 6     5226     5226     5226     5226     5226     5226     5226
   
  number of gridpoints: 
     atom       H29      H30      H31      H32      H33      H34      H35
  grid # 1      107      102      109      110      107      107      115
  grid # 2      436      410      420      430      423      434      446
  grid # 3      852      369      562      831      527      716     1061
  grid # 4     4304     4304     4304     4304     4304     4304     4304
  grid # 5     1192     1192     1192     1192     1192     1192     1192
  grid # 6     5226     5226     5226     5226     5226     5226     5226
   
  number of gridpoints: 
     atom       H36      H37      H38      H39      H40      H41    total
  grid # 1      118      118      114      109      110      110     4211
  grid # 2      451      451      438      430      442      435    15849
  grid # 3     1340     1322      991      757     1079      976    21544
  grid # 4     4304     4304     4304     4304     4304     4304   176464
  grid # 5     1192     1192     1192     1192     1192     1192    48872
  grid # 6     5226     5226     5226     5226     5226     5226   214266
   
  Peak memory usage:   4788 Mb
  
  end of program grid
   
 Time(grid)  user:       23.0  user+sys:       23.0  wallclock:        2.5
  
  start of program rwr
  
  Peak memory usage:   4745 Mb
  
  end of program rwr
   
 Time(rwr)  user:       48.5  user+sys:       48.5  wallclock:        4.4
  
  start of program scf
  
 Energy computed with NOPS off.
  
       i  u  d  i  g                   
       t  p  i  c  r                                 RMS    maximum
       e  d  i  u  i                       energy  density   DIIS  
       r  t  s  t  d       total energy    change  change    error 
  
etot    1  N  N  2  U    -936.26198727785           1.3E-03  2.0E-02
etot    2  Y  Y  6  M    -936.31788693606  5.6E-02  4.0E-04  3.1E-03
etot    3  N  Y  2  U    -936.31619308168 -1.7E-03  8.6E-04  6.9E-03
etot    4  Y  Y  6  M    -936.31131582201 -4.9E-03  6.3E-04  1.7E-02
etot    5  N  Y  2  U    -936.31856172908  7.2E-03  7.4E-05  1.5E-03
etot    6  Y  Y  6  M    -936.31865065834  8.9E-05  2.0E-05  5.0E-04
etot    7  N  Y  2  U    -936.31864785735 -2.8E-06  7.4E-06  1.2E-04
etot    8  N  Y  2  U    -936.31864843087  5.7E-07  3.5E-06  1.1E-04
etot    9  N  N  2  U    -936.31864871138  2.8E-07  0.0E+00  0.0E+00
  
  
 Energy components, in hartrees:
   (A)  Nuclear repulsion............    1719.43715794371
   (E)  Total one-electron terms.....   -4662.36364067078
   (I)  Total two-electron terms.....    2006.60783401569
   (L)  Electronic energy............   -2655.75580665509  (E+I)
   (N)  Total energy.................    -936.31864871138  (A+L)
   (O)  Gas phase energy.............    -936.31864871138
  
                                 Total             Coulomb       Exchange+Corr.
 Total two-electron terms    2006.60783401569    2140.44519020033    -133.83735618464
   Hamiltonian  1........    1028.86333316640    1076.51056218557     -47.64722901917
   Hamiltonian  2........    1016.67019080778    1063.93462801476     -47.26443720698
  
 SCFE: SCF energy: UDFT(b3lyp)      -936.31864871138 hartrees   iterations:   9
  
 
 Alpha HOMO energy:    -0.35831
 Alpha LUMO energy:    -0.18377
 
  Alpha Orbital energies (hartrees): 
   -19.27237   -14.55450   -14.52641   -14.43922   -10.41187   -10.39959
   -10.38814   -10.37107   -10.36556   -10.35998   -10.35342   -10.34749
   -10.34745   -10.34104   -10.34005   -10.33650   -10.33244   -10.33200
   -10.33160   -10.33040   -10.31615   -10.30716    -1.17973    -1.15628
    -1.15394    -1.02366    -0.99914    -0.98947    -0.94555    -0.91408
    -0.90283    -0.89314    -0.86430    -0.85987    -0.82990    -0.81425
    -0.77719    -0.75543    -0.74204    -0.72823    -0.71871    -0.68759
    -0.67649    -0.65237    -0.64917    -0.63831    -0.62601    -0.61650
    -0.61073    -0.59784    -0.58313    -0.58169    -0.57508    -0.57287
    -0.57027    -0.56048    -0.55123    -0.55064    -0.54412    -0.54231
    -0.54007    -0.53008    -0.51892    -0.51360    -0.50692    -0.49893
    -0.49096    -0.48470    -0.47922    -0.47432    -0.47135    -0.42615
    -0.39651    -0.38173    -0.37495    -0.37391    -0.35843    -0.35831
    -0.18377    -0.15040    -0.11757    -0.11566    -0.06825    -0.06474
    -0.04724    -0.03083    -0.02233    -0.02080
 
 
 Beta HOMO energy:    -0.32734
 Beta LUMO energy:    -0.31266
 
  Beta Orbital energies (hartrees): 
   -19.27048   -14.55283   -14.52668   -14.43966   -10.41252   -10.39910
   -10.38565   -10.37092   -10.36564   -10.35997   -10.35113   -10.34751
   -10.34449   -10.34100   -10.33914   -10.33705   -10.33155   -10.33086
   -10.32957   -10.32873   -10.31691   -10.30728    -1.17647    -1.15290
    -1.15130    -1.02305    -0.99628    -0.98695    -0.94313    -0.91184
    -0.89935    -0.89011    -0.86327    -0.85562    -0.82759    -0.81198
    -0.77553    -0.75410    -0.74044    -0.72548    -0.71657    -0.68599
    -0.67448    -0.65089    -0.64752    -0.63687    -0.62209    -0.61505
    -0.60848    -0.59644    -0.58214    -0.58030    -0.57347    -0.57094
    -0.56718    -0.55871    -0.54943    -0.54702    -0.54211    -0.54074
    -0.53874    -0.52878    -0.51593    -0.51165    -0.50243    -0.49759
    -0.48903    -0.48374    -0.47827    -0.47013    -0.46292    -0.41091
    -0.39499    -0.37961    -0.37455    -0.37143    -0.32734    -0.31266
    -0.17513    -0.14046    -0.11199    -0.10327    -0.06210    -0.05495
    -0.04606    -0.02741    -0.02136
 
  
  
    Unrestricted Spin Properties ...
    Sz*(Sz+1)      0.750
    <S**2> ...     0.758
  
  
  Peak memory usage:   6749 Mb
  
  end of program scf
   
 Time(scf)  user:      175.7  user+sys:      175.7  wallclock:       12.7
  
  start of program der1a
  
  Peak memory usage:   4838 Mb
  
  end of program der1a
   
 Time(der1a)  user:        2.3  user+sys:        2.3  wallclock:        0.5
  
  start of program rwr
  
  Peak memory usage:   4745 Mb
  
  end of program rwr
   
 Time(rwr)  user:       33.7  user+sys:       33.7  wallclock:        4.7
  
  start of program der1b
  
   
  forces (hartrees/bohr) : total     
   
 atom  label           x              y              z
 ---- --------   -------------  -------------  -------------
    1 C1         -7.421402E-04   3.109109E-03   1.744947E-03
    2 C2         -1.374125E-03  -9.743847E-04  -7.174985E-04
    3 N3          2.197497E-03  -1.150040E-03  -1.922353E-03
    4 C4          5.008036E-04   2.322108E-03  -2.474523E-03
    5 C5         -2.907283E-03   1.002098E-03   2.567627E-03
    6 N6          1.982959E-03  -9.826597E-04   4.468676E-03
    7 C7         -4.598117E-04  -3.195531E-03   3.098427E-03
    8 C8         -1.134212E-03  -2.830822E-04  -1.523762E-03
    9 C9          7.165040E-03   3.339571E-03   9.671595E-04
   10 C10        -2.152774E-03  -1.064144E-02   1.700345E-03
   11 C11        -6.135437E-04   1.125470E-03  -1.136075E-03
   12 C12         2.926821E-03  -6.139781E-04   3.400348E-03
   13 C13         4.559385E-04   3.473993E-04   3.771479E-04
   14 C14        -2.184196E-04  -4.454059E-05  -7.039994E-04
   15 C15        -1.975857E-04  -3.992934E-04  -5.169686E-05
   16 C16        -2.134893E-04  -1.746712E-03  -5.575184E-05
   17 C17        -3.801029E-04   1.743039E-03   1.670868E-04
   18 C18        -6.026114E-04  -2.070542E-03  -1.241744E-03
   19 N19         7.216702E-04   2.758295E-03   6.763833E-04
   20 C20        -2.844218E-04   5.103118E-04   1.334718E-04
   21 C21        -6.523438E-03   4.500873E-03  -7.741632E-04
   22 O22         2.548491E-03  -2.616568E-03  -1.910246E-03
   23 H23         1.194473E-04  -8.432954E-04  -1.268174E-03
   24 H24         2.230286E-04  -9.954214E-04  -6.683649E-04
   25 H25         1.023140E-03   1.835912E-03  -1.632950E-03
   26 H26         6.671488E-05   2.068544E-05   5.106631E-04
   27 H27        -8.893405E-05   3.373124E-04   1.025024E-04
   28 H28         9.549292E-04  -1.216133E-03  -1.691172E-03
   29 H29        -9.965897E-04  -7.903822E-04   8.338951E-05
   30 H30         4.396553E-04   1.249427E-03   1.798426E-03
   31 H31        -3.166597E-03   2.908614E-03  -4.609001E-03
   32 H32        -1.068243E-03  -6.716218E-04  -6.756241E-04
   33 H33         2.658594E-04   2.541377E-03   1.437703E-03
   34 H34         5.383178E-04   9.577294E-04  -2.523390E-04
   35 H35        -2.345204E-05  -3.302092E-04  -8.902597E-05
   36 H36         6.208699E-05  -1.203727E-04   9.164095E-05
   37 H37         3.935057E-05   5.208106E-05   5.621502E-05
   38 H38         2.006066E-05  -1.617031E-04  -3.539667E-05
   39 H39         5.787023E-05  -9.397574E-05   7.010926E-05
   40 H40        -1.283713E-04  -8.947688E-05   3.514866E-05
   41 H41        -3.229379E-05  -2.203776E-04   2.102231E-05
 -------------   -------------  -------------  -------------
     total       -9.987585E-04   4.096743E-04   7.457916E-05
   
  Peak memory usage:   6742 Mb
  
  end of program der1b
   
 Time(der1b)  user:       53.2  user+sys:       53.2  wallclock:        3.8
  
  start of program geopt
  
 ----------------------------------------------------------------------------
  Geometry optimization step  4
  Total energy:      -936.31864871138 hartrees
 ----------------------------------------------------------------------------
  
  
  Level shifts adjusted to satisfy step-size constraints
   Step size:    0.3000086
   Cos(theta):   0.6569628
   Final level shift:  -4.2233056E-02
  
  energy change:          -7.3879E-03 .  (  5.0000E-05 )
  gradient maximum:        1.1111E-02 .  (  4.5000E-04 )
  gradient rms:            2.6195E-03 .  (  3.0000E-04 )
  displacement maximum:    1.4965E-01 .  (  1.8000E-03 )
  displacement rms:        2.5174E-02 .  (  1.2000E-03 )
  
  predicted energy change:  -4.9766E-03
  step size:     0.29998
  trust radius:  0.30000
  
  molecular structure not yet converged...
  
  center of mass moved by:
     x:    -8.4508E-03     y:     7.4358E-04     z:    -7.4136E-04
  
  new geometry: 
                                   angstroms
  atom               x                 y                 z
  C1            1.4799993749      0.5260767617     -1.2833348003 
  C2            2.7672737958      0.2496159759     -0.5885437945 
  N3            3.7369785979      1.1795273445     -0.5085512092 
  C4            4.8106739700      0.5819831768      0.0911592267 
  C5            4.5051937272     -0.7488399514      0.3978050665 
  N6            3.2057532841     -0.9588038502     -0.0124615082 
  C7            2.5377714825     -2.2641471336      0.2345119444 
  C8            1.0093642592     -2.2577820865      0.3048869984 
  C9            0.3993617684     -1.3712257224      1.4267244916 
  C10          -1.1262827969     -1.2313114531      1.2198903459 
  C11          -1.7026719287     -2.6151872866      1.1165319632 
  C12          -0.9392264288     -3.7654427089      0.7813382652 
  C13          -1.8095631836     -4.8922135224      0.8563591532 
  C14          -1.6227008867     -6.2747538939      0.6540066290 
  C15          -2.7241931527     -7.1247323621      0.8060857713 
  C16          -3.9834595497     -6.6161268008      1.1522869355 
  C17          -4.1903372500     -5.2322891196      1.3670670241 
  C18          -3.0942711262     -4.3989108389      1.2182913158 
  N19          -2.9808958457     -2.9868604341      1.3737081159 
  C20          -4.0713475737     -2.0832196132      1.7604711473 
  C21           0.4837800431     -3.6888332174      0.4825868863 
  O22           1.2121795636     -4.6947013665      0.3819464358 
  H23           1.6403982735      1.3965701113     -1.9221732846 
  H24           0.6759675511      0.7831695103     -0.5809414111 
  H25           1.1418551958     -0.3016950618     -1.9089640518 
  H26           5.7319630019      1.1104488400      0.2688390169 
  H27           5.0859066025     -1.5166849535      0.8819003667 
  H28           2.9171456008     -2.6213895083      1.1973521555 
  H29           2.8535476405     -2.9827518387     -0.5268042503 
  H30           0.6009726518     -1.9184379971     -0.6568305794 
  H31           0.8810492892     -0.3878327811      1.4481044515 
  H32           0.6070887280     -1.8298794917      2.4023836630 
  H33          -1.3310796388     -0.6816414292      0.2893864971 
  H34          -1.5943419528     -0.6730748615      2.0374449691 
  H35          -0.6437252880     -6.6558834157      0.3914206891 
  H36          -2.6054216810     -8.1909984997      0.6549522530 
  H37          -4.8229472192     -7.2927085961      1.2629686663 
  H38          -5.1745062584     -4.8689747976      1.6379939267 
  H39          -4.9756322893     -2.6650934843      1.9294827181 
  H40          -4.2648750773     -1.3570805373      0.9665314470 
  H41          -3.8195644425     -1.5563168129      2.6847959505 
   
  nuclear repulsion energy.......    1717.507976609 hartrees
  -------------------------------------------------
 /  end of geometry optimization iteration   4   /
 -------------------------------------------------
   
  Peak memory usage:   4727 Mb
  
  end of program geopt
   
 Time(geopt)  user:        7.3  user+sys:        7.3  wallclock:        0.6
  
  start of program onee
  
  smallest eigenvalue of S:    4.593E-04
  number of canonical orbitals.....          235
  Peak memory usage:   4838 Mb
  
  end of program onee
   
 Time(onee)  user:        1.9  user+sys:        1.9  wallclock:        0.5
  
  start of program probe
  
  Peak memory usage:   4756 Mb
  
  end of program probe
   
 Time(probe)  user:        2.6  user+sys:        2.6  wallclock:        0.4
  
  start of program grid
  
   grid     grid set  grid #  grid sym
  ------    --------  ------  --------
  coarse        0        0        1
  medium        2        1        1
  fine          0        0        1
  ultrafine     4        2        1
  charge       -1        3        1
  gradient      4        2        1
  density       0        0        1
  DFT-fine    -11        4        1
  DFT-med.    -10        5        1
  DFT-grad    -12        6        1
  DFT-der2      0        0        1
  DFT-cphf      0        0        1
  LMP2-enrg     4        2        1
  LMP2-grad     2        1        1
  DFT-cphf2     0        0        1
  PBF-dens      0        0        1
  plotting      0        0        1
  Rel-grad    -17        0        1
  
  number of gridpoints: 
     atom        C1       C2       N3       C4       C5       N6       C7
  grid # 1       78       97      113       97       95      102       86
  grid # 2      263      356      440      332      330      376      285
  grid # 3        6      103      739      223      203       94        6
  grid # 4     4304     4304     4304     4304     4304     4304     4304
  grid # 5     1192     1192     1192     1192     1192     1192     1192
  grid # 6     5226     5226     5226     5226     5226     5226     5226
   
  number of gridpoints: 
     atom        C8       C9      C10      C11      C12      C13      C14
  grid # 1       89       86       85       97       97       97       97
  grid # 2      318      291      288      358      367      365      337
  grid # 3        6        6        6      108      182      254      233
  grid # 4     4304     4304     4304     4304     4304     4304     4304
  grid # 5     1192     1192     1192     1192     1192     1192     1192
  grid # 6     5226     5226     5226     5226     5226     5226     5226
   
  number of gridpoints: 
     atom       C15      C16      C17      C18      N19      C20      C21
  grid # 1       97       97       97      100      102       79       96
  grid # 2      336      339      338      367      379      255      352
  grid # 3      230      231      232      246      151        6       85
  grid # 4     4304     4304     4304     4304     4304     4304     4304
  grid # 5     1192     1192     1192     1192     1192     1192     1192
  grid # 6     5226     5226     5226     5226     5226     5226     5226
   
  number of gridpoints: 
     atom       O22      H23      H24      H25      H26      H27      H28
  grid # 1      123      111      105      108      118      116      105
  grid # 2      494      441      422      427      465      451      431
  grid # 3      929     1127      599      801     1570     1229      627
  grid # 4     4304     4304     4304     4304     4304     4304     4304
  grid # 5     1192     1192     1192     1192     1192     1192     1192
  grid # 6     5226     5226     5226     5226     5226     5226     5226
   
  number of gridpoints: 
     atom       H29      H30      H31      H32      H33      H34      H35
  grid # 1      108      104      107      111      107      107      115
  grid # 2      436      412      420      431      429      431      446
  grid # 3      852      360      531      836      590      711     1058
[...]
  H36          -2.8144591179     -7.8626836226     -0.3728895242 
  H37          -4.8559722570     -7.2517054269      0.8774345806 
  H38          -5.0514788393     -5.0599415476      2.0354079707 
  H39          -4.1752844746     -3.0804808167      3.6388627460 
  H40          -4.8076256292     -2.2946886931      2.1678165484 
  H41          -3.5318800759     -1.5087966997      3.1192048791 
   
  nuclear repulsion energy.......    1708.414494448 hartrees
  -------------------------------------------------
 /  end of geometry optimization iteration  25   /
 -------------------------------------------------
   
  Peak memory usage:   4727 Mb
  
  end of program geopt
   
 Time(geopt)  user:        8.1  user+sys:        8.1  wallclock:        0.6
  
  start of program onee
  
  smallest eigenvalue of S:    4.712E-04
  number of canonical orbitals.....          235
  Peak memory usage:   4827 Mb
  
  end of program onee
   
 Time(onee)  user:        1.5  user+sys:        1.5  wallclock:        0.5
  
  start of program probe
  
  Peak memory usage:   4756 Mb
  
  end of program probe
   
 Time(probe)  user:        1.0  user+sys:        1.0  wallclock:        0.4
  
  start of program grid
  
   grid     grid set  grid #  grid sym
  ------    --------  ------  --------
  coarse        0        0        1
  medium        2        1        1
  fine          0        0        1
  ultrafine     4        2        1
  charge       -1        3        1
  gradient      4        2        1
  density       0        0        1
  DFT-fine    -11        4        1
  DFT-med.    -10        5        1
  DFT-grad    -12        6        1
  DFT-der2      0        0        1
  DFT-cphf      0        0        1
  LMP2-enrg     4        2        1
  LMP2-grad     2        1        1
  DFT-cphf2     0        0        1
  PBF-dens      0        0        1
  plotting      0        0        1
  Rel-grad    -17        0        1
  
  number of gridpoints: 
     atom        C1       C2       N3       C4       C5       N6       C7
  grid # 1       78       97      112       97       94      103       84
  grid # 2      267      355      443      332      331      375      279
  grid # 3        6      127      791      213      147      108        6
  grid # 4     4304     4304     4304     4304     4304     4304     4304
  grid # 5     1192     1192     1192     1192     1192     1192     1192
  grid # 6     5226     5226     5226     5226     5226     5226     5226
   
  number of gridpoints: 
     atom        C8       C9      C10      C11      C12      C13      C14
  grid # 1       90       86       86       97       99      100       97
  grid # 2      315      294      288      361      361      366      337
  grid # 3        6        6        6      115      200      253      233
  grid # 4     4304     4304     4304     4304     4304     4304     4304
  grid # 5     1192     1192     1192     1192     1192     1192     1192
  grid # 6     5226     5226     5226     5226     5226     5226     5226
   
  number of gridpoints: 
     atom       C15      C16      C17      C18      N19      C20      C21
  grid # 1       97       97       97      100      101       79       96
  grid # 2      338      339      338      367      377      256      351
  grid # 3      230      232      228      226      144        6      102
  grid # 4     4304     4304     4304     4304     4304     4304     4304
  grid # 5     1192     1192     1192     1192     1192     1192     1192
  grid # 6     5226     5226     5226     5226     5226     5226     5226
   
  number of gridpoints: 
     atom       O22      H23      H24      H25      H26      H27      H28
  grid # 1      123      113      109      110      118      114      109
  grid # 2      493      443      433      439      464      448      435
  grid # 3      875     1147      813      994     1569     1061      767
  grid # 4     4304     4304     4304     4304     4304     4304     4304
  grid # 5     1192     1192     1192     1192     1192     1192     1192
  grid # 6     5226     5226     5226     5226     5226     5226     5226
   
  number of gridpoints: 
     atom       H29      H30      H31      H32      H33      H34      H35
  grid # 1      104      107      106      110      108      107      115
  grid # 2      424      422      429      434      439      429      445
  grid # 3      490      451      622      780      890      725     1053
  grid # 4     4304     4304     4304     4304     4304     4304     4304
  grid # 5     1192     1192     1192     1192     1192     1192     1192
  grid # 6     5226     5226     5226     5226     5226     5226     5226
   
  number of gridpoints: 
     atom       H36      H37      H38      H39      H40      H41    total
  grid # 1      118      118      114      111      111      106     4218
  grid # 2      451      451      444      441      442      426    15902
  grid # 3     1337     1324      967     1047     1071      739    22107
  grid # 4     4304     4304     4304     4304     4304     4304   176464
  grid # 5     1192     1192     1192     1192     1192     1192    48872
  grid # 6     5226     5226     5226     5226     5226     5226   214266
   
  Peak memory usage:   4788 Mb
  
  end of program grid
   
 Time(grid)  user:       20.9  user+sys:       20.9  wallclock:        1.8
  
  start of program rwr
  
  Peak memory usage:   4745 Mb
  
  end of program rwr
   
 Time(rwr)  user:       42.0  user+sys:       42.0  wallclock:        4.5
  
  start of program scf
  
 Energy computed with NOPS off.
  
       i  u  d  i  g                   
       t  p  i  c  r                                 RMS    maximum
       e  d  i  u  i                       energy  density   DIIS  
       r  t  s  t  d       total energy    change  change    error 
  
etot    1  N  N  2  U    -936.33619100444           3.5E-05  3.9E-04
etot    2  N  Y  2  U    -936.33621943970  2.8E-05  3.7E-05  8.2E-05
etot    3  N  Y  2  U    -936.33619662143 -2.3E-05  4.8E-05  9.3E-04
etot    4  N  Y  2  U    -936.33621537498  1.9E-05  1.5E-05  4.0E-04
etot    5  N  Y  2  U    -936.33622015719  4.8E-06  9.3E-07  1.7E-05
etot    6  N  N  2  U    -936.33622015902  1.8E-09  0.0E+00  0.0E+00
  
  
 Energy components, in hartrees:
   (A)  Nuclear repulsion............    1708.41449444820
   (E)  Total one-electron terms.....   -4640.67422871404
   (I)  Total two-electron terms.....    1995.92351410681
   (L)  Electronic energy............   -2644.75071460722  (E+I)
   (N)  Total energy.................    -936.33622015902  (A+L)
   (O)  Gas phase energy.............    -936.33622015902
  
                                 Total             Coulomb       Exchange+Corr.
 Total two-electron terms    1995.92351410681    2129.76037270989    -133.83685860307
   Hamiltonian  1........    1023.49514345960    1071.14255463111     -47.64741117150
   Hamiltonian  2........    1011.35405880611    1058.61781807878     -47.26375927267
  
 SCFE: SCF energy: UDFT(b3lyp)      -936.33622015902 hartrees   iterations:   6
  
 
 Alpha HOMO energy:    -0.35584
 Alpha LUMO energy:    -0.18188
 
  Alpha Orbital energies (hartrees): 
   -19.26730   -14.55105   -14.52725   -14.44210   -10.40716   -10.39812
   -10.38711   -10.36636   -10.36244   -10.36100   -10.35776   -10.34329
   -10.34316   -10.33770   -10.33670   -10.33625   -10.33378   -10.32846
   -10.32816   -10.32725   -10.31332   -10.29922    -1.17288    -1.15836
    -1.15281    -1.02677    -0.99529    -0.98367    -0.94235    -0.91419
    -0.90243    -0.88911    -0.86213    -0.85816    -0.82905    -0.80988
    -0.77545    -0.75313    -0.73908    -0.73162    -0.71517    -0.68430
    -0.67833    -0.65652    -0.64703    -0.63665    -0.62457    -0.60885
    -0.60421    -0.59469    -0.58936    -0.57804    -0.57427    -0.57231
    -0.56779    -0.55670    -0.54788    -0.54761    -0.54285    -0.53841
    -0.53049    -0.52624    -0.51559    -0.51101    -0.50327    -0.49704
    -0.49427    -0.48141    -0.47806    -0.47107    -0.46665    -0.42082
    -0.40401    -0.37881    -0.37536    -0.37167    -0.35944    -0.35584
    -0.18188    -0.14884    -0.11689    -0.11538    -0.06762    -0.06084
    -0.04352    -0.02808    -0.02271    -0.01626
 
 
 Beta HOMO energy:    -0.32634
 Beta LUMO energy:    -0.31242
 
  Beta Orbital energies (hartrees): 
   -19.26513   -14.54951   -14.52752   -14.44251   -10.40784   -10.39771
   -10.38449   -10.36623   -10.36250   -10.35844   -10.35777   -10.34319
   -10.34056   -10.33767   -10.33541   -10.33508   -10.33425   -10.32846
   -10.32592   -10.32568   -10.31404   -10.29934    -1.16916    -1.15551
    -1.14969    -1.02607    -0.99260    -0.98112    -0.94030    -0.91097
    -0.89929    -0.88618    -0.86114    -0.85418    -0.82705    -0.80733
    -0.77388    -0.75187    -0.73737    -0.72891    -0.71313    -0.68230
    -0.67700    -0.65472    -0.64559    -0.63535    -0.62087    -0.60728
    -0.60226    -0.59212    -0.58812    -0.57684    -0.57275    -0.57072
    -0.56473    -0.55441    -0.54540    -0.54500    -0.53992    -0.53741
    -0.52931    -0.52469    -0.51236    -0.50597    -0.50262    -0.49583
    -0.49230    -0.48046    -0.47561    -0.46694    -0.45941    -0.40628
    -0.40209    -0.37670    -0.37397    -0.36928    -0.32634    -0.31242
    -0.17372    -0.13938    -0.11028    -0.10275    -0.05733    -0.05388
    -0.04295    -0.02730    -0.02103
 
  
  
    Unrestricted Spin Properties ...
    Sz*(Sz+1)      0.750
    <S**2> ...     0.757
  
  
  Peak memory usage:   6749 Mb
  
  end of program scf
   
 Time(scf)  user:      137.1  user+sys:      137.1  wallclock:        9.6
  
  start of program der1a
  
  Peak memory usage:   4838 Mb
  
  end of program der1a
   
 Time(der1a)  user:        2.1  user+sys:        2.1  wallclock:        0.5
  
  start of program rwr
  
  Peak memory usage:   4745 Mb
  
  end of program rwr
   
 Time(rwr)  user:       36.9  user+sys:       36.9  wallclock:        5.0
  
  start of program der1b
  
   
  forces (hartrees/bohr) : total     
   
 atom  label           x              y              z
 ---- --------   -------------  -------------  -------------
    1 C1         -6.129500E-05  -3.426607E-05   7.504682E-06
    2 C2          1.239906E-04  -8.585372E-05  -7.857078E-05
    3 N3         -1.101651E-04   1.189428E-04  -2.011681E-05
    4 C4          1.377458E-04  -8.252890E-05  -4.179462E-05
    5 C5         -3.395016E-05  -1.063233E-04  -6.305359E-05
    6 N6          7.318659E-05   1.891747E-05  -5.273739E-05
    7 C7          2.343586E-07  -1.129836E-05   7.006131E-05
    8 C8         -4.133520E-05   1.399164E-05  -3.596361E-05
    9 C9         -1.244540E-05  -1.126934E-05   9.940756E-06
   10 C10         1.669478E-05   1.424173E-06  -2.941122E-05
   11 C11         1.544694E-05  -1.387966E-04   6.766246E-05
   12 C12         7.567992E-05  -7.505895E-05   3.193958E-05
   13 C13        -1.173579E-05  -1.528920E-05  -3.731153E-05
   14 C14        -3.191557E-05   4.127937E-05   5.262796E-07
   15 C15        -6.515163E-08   1.335004E-05   1.095167E-05
   16 C16        -1.653331E-05   1.459925E-05   1.031088E-05
   17 C17         2.949185E-05   4.513421E-05   5.137082E-06
   18 C18        -1.642552E-05  -1.321337E-04   7.847411E-05
   19 N19        -7.116164E-05   1.322090E-04  -2.752139E-04
   20 C20         8.157004E-05  -2.185443E-05   1.122008E-04
   21 C21        -6.048884E-05  -2.586275E-05  -2.768996E-05
   22 O22         4.396915E-06   3.053287E-05  -6.264513E-06
   23 H23         4.108248E-05  -9.460425E-06  -2.468217E-05
   24 H24        -1.232471E-05  -1.323468E-06  -2.508677E-05
   25 H25        -2.762489E-05  -3.917861E-05  -2.158285E-05
   26 H26        -5.459843E-05  -1.158572E-05  -3.656814E-05
   27 H27        -2.575612E-05   1.688073E-05  -3.900189E-05
   28 H28        -2.406824E-05   4.197099E-05   3.463684E-06
   29 H29        -7.143025E-06  -3.419747E-05  -2.823521E-05
   30 H30        -3.692643E-05  -1.748189E-05  -1.648732E-05
   31 H31        -8.583999E-06  -7.213943E-06  -1.108110E-05
   32 H32         2.439209E-06  -1.825013E-06  -3.085259E-05
   33 H33        -1.098541E-05   2.395578E-05  -1.017786E-05
   34 H34        -1.250284E-05   1.244605E-05  -1.064374E-05
   35 H35         2.683502E-06  -2.654460E-05  -9.687482E-06
   36 H36        -2.033469E-05  -2.251423E-05  -1.340419E-06
   37 H37        -3.032223E-05  -6.375144E-06   8.917650E-06
   38 H38        -2.410588E-05   9.949594E-06   1.492422E-05
   39 H39         2.138833E-05   6.461611E-05  -5.374557E-05
   40 H40         5.469872E-06   1.872876E-05   2.187888E-05
   41 H41        -1.263591E-05   3.391155E-05   8.215763E-06
 -------------   -------------  -------------  -------------
     total       -1.439283E-04  -2.653954E-04  -5.251913E-04
   
  Peak memory usage:   6742 Mb
  
  end of program der1b
   
 Time(der1b)  user:       54.1  user+sys:       54.1  wallclock:        4.0
  
  start of program geopt
  
 ----------------------------------------------------------------------------
  Geometry optimization step 26
  Total energy:      -936.33622015902 hartrees
 ----------------------------------------------------------------------------
  
  energy change:          -1.1139E-06 #  (  5.0000E-05 )
  gradient maximum:        2.9155E-04 *  (  4.5000E-04 )
  gradient rms:            6.7104E-05 *  (  3.0000E-04 )
  displacement maximum:    8.8506E-03 .  (  1.8000E-03 )
  displacement rms:        1.1794E-03 *  (  1.2000E-03 )
  
  predicted energy change:  -1.9515E-06
  step size:     0.01405
  trust radius:  0.30000
  
  ********************************************************
  **           Geometry optimization complete           **
  ********************************************************
  
  Checking the geometry optimization convergence pattern ...
  
  best                    worst
  ==0=====1=====2=====3=====4==
    ^                          
  
  Convergence category 0: monotonic convergence.
  Geometry optimization was OK.
  
  Number of imaginary frequencies:   0
  
  center of mass moved by:
     x:     0.0000E+00     y:     0.0000E+00     z:     0.0000E+00
  
  final geometry: 
                                   angstroms
  atom               x                 y                 z
  C1            2.8216807431     -0.7979138925     -2.4421224881 
  C2            3.2521852202     -0.2151361222     -1.1488708997 
  N3            3.8819779479      0.9687281776     -1.0060251907 
  C4            4.1566960622      1.1066757371      0.3287936312 
  C5            3.6857909875     -0.0127680426      1.0366890476 
  N6            3.1078556366     -0.8407049314      0.1001136487 
  C7            2.4752507220     -2.1420851575      0.3571638302 
  C8            0.9422516516     -2.0506491898      0.5100864206 
  C9            0.4853019956     -1.4395890349      1.8568749277 
  C10          -1.0561475543     -1.3617138968      1.9886576766 
  C11          -1.6631044031     -2.6783921349      1.6240331594 
  C12          -1.0043022120     -3.6502510666      0.8237524230 
  C13          -1.8797249655     -4.7745749039      0.6989866298 
  C14          -1.7803861031     -6.0205418371      0.0443736844 
  C15          -2.8682521844     -6.9000961882      0.1215377156 
  C16          -4.0275124100     -6.5541927235      0.8317892226 
  C17          -4.1456195243     -5.3095727198      1.4955877393 
  C18          -3.0640841288     -4.4473192550      1.4148933918 
  N19          -2.8905685254     -3.1484260459      1.9707678973 
  C20          -3.9124581836     -2.4680990136      2.7718933271 
  C21           0.3188536311     -3.4360447552      0.2706063313 
  O22           0.9138814693     -4.3140375702     -0.3961518302 
  H23           3.0699437325     -0.0908452813     -3.2343402989 
  H24           1.7433205338     -0.9964550522     -2.4789160248 
  H25           3.3341020374     -1.7464429774     -2.6518265038 
  H26           4.6681169825      1.9708950142      0.7184676976 
  H27           3.7364163925     -0.2655971994      2.0829362765 
  H28           2.9279704966     -2.5666059331      1.2584795665 
  H29           2.7087239159     -2.8185637098     -0.4675335884 
  H30           0.5600207964     -1.4060401535     -0.3005759984 
  H31           0.8998026983     -0.4324323943      1.9660289911 
  H32           0.8848024782     -2.0468984178      2.6800935210 
  H33          -1.4493255726     -0.5765478001      1.3234010326 
  H34          -1.3245279433     -1.0635447232      3.0086059389 
  H35          -0.8781455182     -6.2772076684     -0.4962291360 
  H36          -2.8144591179     -7.8626836226     -0.3728895242 
  H37          -4.8559722570     -7.2517054269      0.8774345806 
  H38          -5.0514788393     -5.0599415476      2.0354079707 
  H39          -4.1752844746     -3.0804808167      3.6388627460 
  H40          -4.8076256292     -2.2946886931      2.1678165484 
  H41          -3.5318800759     -1.5087966997      3.1192048791 
   
  principal moments of inertia:
        amu*angstrom^2:      714.18313     3671.92627     4156.45775
                g*cm^2: 1.18592884E-37 6.09737626E-37 6.90195962E-37
   
  rotational constants:
               cm^(-1):      0.02360407      0.00459095      0.00405577
                   GHz:      0.70763224      0.13763321      0.12158887
   
  nuclear repulsion energy.......    1708.414494448 hartrees
  -------------------------------------------------
 /  end of geometry optimization iteration  26   /
 -------------------------------------------------
   
  Peak memory usage:   4821 Mb
  
  end of program geopt
   
 Time(geopt)  user:       10.8  user+sys:       10.8  wallclock:        1.0
  
  start of program ch
  
  Moments from quantum mechanical wavefunction:
  Dipole Moments  (Debye)
     X=    -5.0672     Y=     0.4535     Z=     4.7071  Tot=     6.9310
  
  gridpoints used for charge fit        20836
    out of a possible maximum of        22107
  
   Electrostatic potential fitting constrained to reproduce
     total charge:                yes
     dipole moment:               yes
     traceless quadrupole moment: no 
     traceless octapole moment:   no 
  
  Atomic charges from electrostatic potential: 
   
 Atom       C1           C2           N3           C4           C5      
 Charge   -0.45774      0.56010     -0.64730      0.33200     -0.42057
   
 Atom       N6           C7           C8           C9           C10     
 Charge    0.19993     -0.42315     -0.07769      0.04013     -0.22565
   
 Atom       C11          C12          C13          C14          C15     
 Charge    0.28551     -0.47629      0.18609     -0.08897     -0.14594
   
 Atom       C16          C17          C18          N19          C20     
 Charge   -0.07555     -0.13234      0.06369     -0.03746     -0.24438
   
 Atom       C21          O22          H23          H24          H25     
 Charge    0.71308     -0.48990      0.17204      0.13988      0.15530
   
 Atom       H26          H27          H28          H29          H30     
 Charge    0.10161      0.23819      0.20710      0.14290      0.05041
   
 Atom       H31          H32          H33          H34          H35     
 Charge    0.04741      0.03187      0.11482      0.11326      0.15592
   
 Atom       H36          H37          H38          H39          H40     
 Charge    0.15959      0.15274      0.15699      0.14558      0.14401
   
 Atom       H41     
 Charge    0.13278
  
  sum of atomic charges:     1.000000
   
 RMS Error   8.37E-04 hartrees
 
  
  Moments from electrostatic potential charges:
  Dipole Moments  (Debye)
     X=    -5.0672     Y=     0.4535     Z=     4.7071  Tot=     6.9310
  
  Peak memory usage:   4833 Mb
  
  end of program ch
   
 Time(ch)  user:        7.7  user+sys:        7.7  wallclock:        3.2

 Total cpu seconds     user:    8547.557   user+sys:    8547.557
  
 Total elapsed time:    810 seconds

Job ondansetron_1 completed on n043 at Sun Jan  8 22:39:25 2017
