Job Perylene_1 started on n044 at Sun Jan  8 22:25:57 2017
jobid: u01-0-58730286

  +--------------------------------------------------------------------+
  |  Jaguar version 9.3, release  15                                   |
  |                                                                    |
  |  Copyright Schrodinger, Inc.                                       |
  |  All Rights Reserved.                                              |
  |                                                                    |
  |  The following have contributed to Jaguar (listed alphabetically): |
  |  Mike Beachy, Art Bochevarov, Dale Braden, Yixiang Cao,            |
  |  Chris Cortis, Rich Friesner, Bill Goddard, Hod Greeley,           |
  |  Tom Hughes, Leif Jacobson, Jean-Marc Langlois,                    |
  |  Daniel Mainz, Rob Murphy, Dean Philipp,                           |
  |  Tom Pollard, Murco Ringnalda, Mark Watson.                        |
  |                                                                    |
  |  Use of this program should be acknowledged in publications as:    |
  |                                                                    |
  |  Jaguar, version 9.3, Schrodinger, Inc., New York, NY, 2016.       |
  |                                                                    |
  |  A. D. Bochevarov, E. Harder, T. F. Hughes, J. R. Greenwood,       |
  |  D. A. Braden, D. M. Philipp, D. Rinaldo, M. D. Halls,             |
  |  J. Zhang, R. A. Friesner, "Jaguar: A High-Performance Quantum     |
  |  Chemistry Software Program with Strengths in Life and Materials   |
  |  Sciences", Int. J. Quantum Chem., 2013, 113(18), 2110-2142.       |
  +--------------------------------------------------------------------+
  
  start of program pre
  
  Job name: Perylene_1
  Executables used: /home/applications/Schrodinger_Suites_2016-3/jaguar-v9.3/bin/Linux-x86_64
  Temporary files : /scratch/Schrodinger_Suites/pbeni001/Perylene_1#u01-0-58730286
  Maestro file (input):  Perylene_1.mae
  Maestro file (output): Perylene_1.01.mae
  
  basis set:             6-31g                           
  net molecular charge:    1
  multiplicity:            2
  
  Using up to  16 threads per process
  
  number of basis functions....          204
  
 Input geometry:
                                   angstroms
  atom               x                 y                 z
  C1            0.6817375000      2.7838950000     -0.0287410000 
  C2           -0.7257724000      2.9335957000      0.0088229000 
  C3           -1.6609640000      1.8691373000     -0.0158411000 
  C4           -1.1180620000      0.5902695000     -0.1266270000 
  C5           -1.4658680000     -0.7186563000     -0.5823162000 
  C6           -0.0330336000     -1.6642478000     -0.6706758000 
  C7            1.2163547000     -1.1852932000     -0.0157963000 
  C8            0.3577182000     -0.7254967000      0.8823669000 
  C9            0.1623960000      0.5109853000      0.3223006000 
  C10           1.1633271000      1.5135816000      0.0591587000 
  C11           2.5454872000     -2.1468224000      0.5583595000 
  C12           4.2655417000     -2.8056160000      0.7788232000 
  C13           4.7072457000     -3.9352017000      0.1125777000 
  C14           3.9097617000     -3.5999807000     -0.7261561000 
  C15           2.5376293000     -4.1939396000     -0.2325519000 
  C16           1.8338290000     -3.1873154000     -0.0214631000 
  C17           0.3303065000     -3.0272805000     -0.3566678000 
  C18          -0.4462744000     -4.0893463000     -0.0204504000 
  C19           0.3384923000     -5.2006547000      0.1688137000 
  C20           1.6990400000     -5.4902508000      0.3268075000 
  H21           1.3619069000      3.6369596000     -0.0207822000 
  H22          -1.1280171000      3.9280961000      0.0076413000 
  H23          -2.7365553000      2.0178105000     -0.0351842000 
  H24          -2.5643458000     -0.8992624000     -0.2414222000 
  H25          -0.7390412000     -1.5195148000      1.0808392000 
  H26           2.2573449000      1.3486557000      0.0582907000 
  H27           5.3388415000     -2.3315169000      0.4017451000 
  H28           4.6322439000     -5.1002350000      0.1038464000 
  H29           4.0751475000     -2.1942304000     -0.9259482000 
  H30          -1.5147465000     -4.0803596000      0.0084455000 
  H31           0.8204929000     -4.9932312000     -0.8620265000 
  H32           1.2821720000     -6.5514027000     -0.0219665000 
   
  principal moments of inertia:
        amu*angstrom^2:      588.86574     2047.02535     2551.95702
                g*cm^2: 9.77834446E-38 3.39916515E-37 4.23762380E-37
   
  rotational constants:
               cm^(-1):      0.02862729      0.00823518      0.00660577
                   GHz:      0.85822450      0.24688459      0.19803586
   
  Warning: atom          29  is not bonded to any other atoms
  Molecular weight:     252.09 amu
   
  Stoichiometry: C20H12
  Molecular Point Group: C1      
  Point Group used: C1
  
  detected            2  molecular fragments
 
Number of optimization coordinates:   133
Number of independent coordinates:    133
Number of non-redundant coordinates:   90
Number of frozen coordinates:           0
Number of harmonic constraints:         0
 
Number of geometric degrees of freedom:    90
Maximum geometric degrees of freedom:      90
 " " " " " excluding dummy atoms:          90
 
  Warning: atom          29  is not bonded to any other atoms
  nuclear repulsion energy.......    1362.739232966 hartrees
 
 Non-default options chosen:
   SCF calculation type: UDFT(b3lyp)                 
   UDFT=Becke_3_Parameter/HF+Slater+Becke88+VWN+LYP (B3LYP)
   Geometry will be optimized in redundant internal coordinates
   Electrostatic potential fit to point charges on atomic centers
   Electrostatic potential fitting constrained to reproduce
     total charge:                yes
     dipole moment:               yes
     traceless quadrupole moment: no 
     traceless octapole moment:   no 
  
 Temporary integer options set:
     73=  2
  
  Peak memory usage:   4803 Mb
  
  end of program pre
   
 Time(pre)  user:        7.2  user+sys:        7.2  wallclock:        0.9
  
  start of program onee
  
  smallest eigenvalue of S:    8.539E-04
  number of canonical orbitals.....          204
  Peak memory usage:   4838 Mb
  
  end of program onee
   
 Time(onee)  user:        1.9  user+sys:        1.9  wallclock:        0.5
  
  start of program hfig
  
  initial wavefunction generated automatically from atomic wavefunctions
  
  -------------------
  Alpha orbital space
  -------------------
 
  Irreducible     Total no   No of occupied orbitals 
  representation  orbitals   Shell_1  Shell_2    ...
  No Symm          204         66
  ------------------------
  Orbital occupation/shell    1.000
 
  ------------------
  Beta orbital space
  ------------------
 
  Irreducible     Total no   No of occupied orbitals 
  representation  orbitals   Shell_1  Shell_2    ...
  No Symm          204         65
  ------------------------
  Orbital occupation/shell    1.000
 
  
  
    Unrestricted Spin Properties ...
    Sz*(Sz+1) ..............     0.750
    <S**2> of initial guess      0.750
  
  
  Peak memory usage:   4756 Mb
  
  end of program hfig
   
 Time(hfig)  user:        2.6  user+sys:        2.6  wallclock:        0.6
  
  start of program probe
  
  Peak memory usage:   4756 Mb
  
  end of program probe
   
 Time(probe)  user:        2.0  user+sys:        2.0  wallclock:        0.4
  
  start of program grid
  
   grid     grid set  grid #  grid sym
  ------    --------  ------  --------
  coarse        0        0        1
  medium        2        1        1
  fine          0        0        1
  ultrafine     4        2        1
  charge       -1        3        1
  gradient      4        2        1
  density       0        0        1
  DFT-fine    -11        4        1
  DFT-med.    -10        5        1
  DFT-grad    -12        6        1
  DFT-der2      0        0        1
  DFT-cphf      0        0        1
  LMP2-enrg     4        2        1
  LMP2-grad     2        1        1
  DFT-cphf2     0        0        1
  PBF-dens      0        0        1
  plotting      0        0        1
  Rel-grad    -17        0        1
  
  number of gridpoints: 
     atom        C1       C2       C3       C4       C5       C6       C7
  grid # 1       96       96       96       95       98      101       99
  grid # 2      338      340      335      354      373      386      373
  grid # 3      225      225      217      154      284      336      107
  grid # 4     4304     4304     4304     4304     4304     4304     4304
  grid # 5     1192     1192     1192     1192     1192     1192     1192
  grid # 6     5226     5226     5226     5226     5226     5226     5226
   
  number of gridpoints: 
     atom        C8       C9      C10      C11      C12      C13      C14
  grid # 1      100       94       97      105       97       90       98
  grid # 2      355      347      344      409      377      339      366
  grid # 3      305      130      209      323      421      206      345
  grid # 4     4304     4304     4304     4304     4304     4304     4304
  grid # 5     1192     1192     1192     1192     1192     1192     1192
  grid # 6     5226     5226     5226     5226     5226     5226     5226
   
  number of gridpoints: 
     atom       C15      C16      C17      C18      C19      C20      H21
  grid # 1       96       96       98       93       96       97      118
  grid # 2      365      342      358      319      359      373      453
  grid # 3       78       97       94       92      362      343     1354
  grid # 4     4304     4304     4304     4304     4304     4304     4304
  grid # 5     1192     1192     1192     1192     1192     1192     1192
  grid # 6     5226     5226     5226     5226     5226     5226     5226
   
  number of gridpoints: 
     atom       H22      H23      H24      H25      H26      H27      H28
  grid # 1      118      118      116      109      118      111      114
  grid # 2      450      454      459      434      446      449      458
  grid # 3     1314     1317     1088      695     1081     1180     1281
  grid # 4     4304     4304     4304     4304     4304     4304     4304
  grid # 5     1192     1192     1192     1192     1192     1192     1192
  grid # 6     5226     5226     5226     5226     5226     5226     5226
   
  number of gridpoints: 
     atom       H29      H30      H31      H32    total
  grid # 1      111      116       99      112     3298
  grid # 2      437      453      407      451    12503
  grid # 3      846     1238      613     1304    17864
  grid # 4     4304     4304     4304     4304   137728
  grid # 5     1192     1192     1192     1192    38144
  grid # 6     5226     5226     5226     5226   167232
   
  Peak memory usage:   4785 Mb
  
  end of program grid
   
 Time(grid)  user:       16.9  user+sys:       16.9  wallclock:        1.7
  
  start of program rwr
  
  Peak memory usage:   4745 Mb
  
  end of program rwr
   
 Time(rwr)  user:       36.6  user+sys:       36.6  wallclock:        3.5
  
  start of program scf
  
 number of electrons..........        131
 number of alpha electrons....         66
 number of beta electrons.....         65
 number of alpha orbitals.....        204
 number of beta orbitals......        204
 number of alpha occupied orb..        66
 number of alpha virtual orb...       138
 number of beta occupied orb...        65
 number of beta virtual orb....       139
 SCF type: UDFT=Becke_3_Parameter/HF+Slater+Becke88+VWN+LYP (B3LYP)
 Energy computed with NOPS off.
  
       i  u  d  i  g                   
       t  p  i  c  r                                 RMS    maximum
       e  d  i  u  i                       energy  density   DIIS  
       r  t  s  t  d       total energy    change  change    error 
  
etot    1  N  N  5  M    -764.69367000259           1.8E-02  1.7E-01
etot    2  Y  Y  6  M    -764.80911297928  1.2E-01  2.3E-02  2.0E-01
etot    3  N  Y  2  U    -757.78101825147 -7.0E+00  2.4E-02  2.9E-01
etot    4  N  Y  2  U    -765.34930785971  7.6E+00  2.1E-02  2.0E-01
etot    5  Y  Y  6  M    -765.53205442566  1.8E-01  1.4E-02  2.3E-01
etot    6  N  Y  2  U    -766.98710525281  1.5E+00  8.1E-03  1.2E-01
etot    7  Y  Y  6  M    -767.38997229579  4.0E-01  6.0E-03  4.7E-02
etot    8  N  Y  2  U    -767.31486090313 -7.5E-02  5.2E-03  7.8E-02
etot    9  N  Y  2  U    -767.49804695053  1.8E-01  1.6E-03  2.5E-02
etot   10  Y  Y  6  M    -767.52656919643  2.9E-02  9.5E-04  1.7E-02
etot   11  N  Y  2  U    -767.53710556830  1.1E-02  6.2E-04  9.3E-03
etot   12  Y  Y  6  M    -767.54089765680  3.8E-03  4.0E-04  6.0E-03
etot   13  Y  Y  6  M    -767.54267993217  1.8E-03  4.6E-04  3.4E-03
etot   14  N  Y  2  U    -767.54401665146  1.3E-03  2.2E-04  2.4E-03
etot   15  Y  Y  6  M    -767.54463971017  6.2E-04  1.4E-04  2.5E-03
etot   16  Y  Y  6  M    -767.54500823381  3.7E-04  3.7E-04  2.6E-03
etot   17  N  Y  2  U    -767.54593148746  9.2E-04  9.9E-05  2.8E-03
etot   18  Y  Y  6  M    -767.54609636644  1.6E-04  2.3E-04  2.7E-03
etot   19  Y  Y  6  M    -767.54663913609  5.4E-04  1.4E-03  2.0E-03
etot   20  N  Y  2  U    -767.54819780222  1.6E-03  3.4E-04  1.0E-03
etot   21  Y  Y  6  M    -767.54822010188  2.2E-05  4.3E-05  8.2E-04
etot   22  N  Y  2  U    -767.54826761049  4.8E-05  1.1E-04  4.6E-04
etot   23  Y  Y  6  M    -767.54830581729  3.8E-05  4.9E-05  1.8E-04
etot   24  N  Y  2  U    -767.54831775250  1.2E-05  3.5E-05  1.8E-04
etot   25  N  Y  2  U    -767.54832489849  7.1E-06  3.3E-05  1.1E-04
etot   26  N  Y  2  U    -767.54832813434  3.2E-06  4.6E-05  1.2E-04
etot   27  N  Y  2  U    -767.54833313618  5.0E-06  2.3E-05  6.5E-05
etot   28  N  Y  2  U    -767.54833526127  2.1E-06  2.4E-05  5.4E-05
etot   29  N  Y  2  U    -767.54833707696  1.8E-06  2.5E-05  5.4E-05
etot   30  N  Y  2  U    -767.54833834531  1.3E-06  1.0E-05  3.0E-05
etot   31  N  Y  2  U    -767.54833868949  3.4E-07  6.7E-06  2.1E-05
etot   32  N  Y  2  U    -767.54833887662  1.9E-07  5.2E-06  1.7E-05
etot   33  N  Y  2  U    -767.54833899323  1.2E-07  4.1E-06  1.4E-05
etot   34  N  N  2  U    -767.54833907244  7.9E-08  0.0E+00  0.0E+00
  
  
 Energy components, in hartrees:
   (A)  Nuclear repulsion............    1362.73923296600
   (E)  Total one-electron terms.....   -3720.25341461681
   (I)  Total two-electron terms.....    1589.96584257837
   (L)  Electronic energy............   -2130.28757203844  (E+I)
   (N)  Total energy.................    -767.54833907244  (A+L)
   (O)  Gas phase energy.............    -767.54833907244
  
                                 Total             Coulomb       Exchange+Corr.
 Total two-electron terms    1589.96584257837    1702.38515037594    -112.41930779757
   Hamiltonian  1........     817.23489404286     857.27583962416     -40.04094558129
   Hamiltonian  2........     805.45049533024     845.10931075178     -39.65881542153
  
 SCFE: SCF energy: UDFT(b3lyp)      -767.54833907244 hartrees   iterations:  34
  
 
 Alpha HOMO energy:    -0.32649
 Alpha LUMO energy:    -0.26238
 
  Alpha Orbital energies (hartrees): 
   -10.43715   -10.41970   -10.41630   -10.41566   -10.40730   -10.40669
   -10.40092   -10.40037   -10.39156   -10.38193   -10.37857   -10.37765
   -10.37371   -10.36642   -10.33869   -10.32714   -10.31750   -10.31321
   -10.30749   -10.30294    -1.16130    -1.12777    -1.10268    -1.02940
    -1.00187    -0.96389    -0.92240    -0.89581    -0.87781    -0.84487
    -0.81370    -0.80666    -0.75861    -0.75024    -0.73249    -0.70746
    -0.69527    -0.67656    -0.66702    -0.65263    -0.64340    -0.63389
    -0.63041    -0.61391    -0.60231    -0.58469    -0.57255    -0.56185
    -0.55737    -0.54755    -0.54483    -0.53521    -0.52662    -0.50554
    -0.48620    -0.47680    -0.47159    -0.45597    -0.44453    -0.42411
    -0.41655    -0.39637    -0.37215    -0.36746    -0.34300    -0.32649
    -0.26238    -0.24194    -0.21678    -0.20174    -0.18315    -0.16896
    -0.15056    -0.13740    -0.12181    -0.10734
 
 
 Beta HOMO energy:    -0.32397
 Beta LUMO energy:    -0.27728
 
  Beta Orbital energies (hartrees): 
   -10.43420   -10.41811   -10.41702   -10.41126   -10.40832   -10.39928
   -10.39768   -10.39141   -10.38976   -10.38943   -10.37986   -10.37861
   -10.37233   -10.36763   -10.33863   -10.32672   -10.31714   -10.31349
   -10.30716   -10.30319    -1.16359    -1.12537    -1.09382    -1.02348
    -1.00070    -0.95922    -0.92141    -0.89350    -0.87057    -0.84418
    -0.81207    -0.80733    -0.75915    -0.74659    -0.72484    -0.70682
    -0.69545    -0.67026    -0.66197    -0.64985    -0.63845    -0.63146
    -0.62783    -0.61324    -0.60291    -0.58260    -0.57194    -0.55937
    -0.55375    -0.54642    -0.53845    -0.53322    -0.52463    -0.50811
    -0.48586    -0.47594    -0.47000    -0.45142    -0.43632    -0.41766
    -0.40205    -0.37177    -0.36533    -0.34789    -0.32397    -0.27728
    -0.26328    -0.22708    -0.21266    -0.20037    -0.18350    -0.16529
    -0.15030    -0.13577    -0.11999
 
  
  
    Unrestricted Spin Properties ...
    Sz*(Sz+1)      0.750
    <S**2> ...     1.534
  
  
  Peak memory usage:   6747 Mb
  
  end of program scf
   
 Time(scf)  user:      464.7  user+sys:      464.7  wallclock:       32.3
  
  start of program der1a
  
  Peak memory usage:   4838 Mb
  
  end of program der1a
   
 Time(der1a)  user:        2.5  user+sys:        2.5  wallclock:        0.4
  
  start of program rwr
  
  Peak memory usage:   4745 Mb
  
  end of program rwr
   
 Time(rwr)  user:       27.1  user+sys:       27.1  wallclock:        3.5
  
  start of program der1b
  
   
  forces (hartrees/bohr) : total     
   
 atom  label           x              y              z
 ---- --------   -------------  -------------  -------------
    1 C1         -3.307502E-03   3.614329E-03  -8.817140E-04
    2 C2         -3.574276E-02   1.289734E-04   2.115256E-03
    3 C3         -1.437349E-04   3.227312E-02  -1.324912E-02
    4 C4         -2.735151E-02  -1.998847E-02  -2.836573E-02
    5 C5         -1.025563E-02  -2.308233E-03   2.464930E-02
    6 C6         -3.337751E-03  -3.762922E-02  -9.782711E-03
    7 C7          6.456213E-02   2.171004E-02  -3.148159E-02
    8 C8         -6.852162E-02  -2.317919E-02   9.798459E-02
    9 C9          7.872792E-02   5.735978E-02   1.345253E-02
   10 C10         1.762392E-02   3.698055E-04   2.351109E-02
   11 C11        -2.557605E-02   2.380241E-02  -1.514276E-02
   12 C12         5.467345E-02   1.119426E-01   4.853749E-02
   13 C13         1.605430E-01  -2.304625E-01   1.550783E-01
   14 C14        -1.879479E-01   1.084157E-01  -2.360644E-01
   15 C15         7.369258E-02  -1.977235E-01  -5.982391E-02
   16 C16        -1.060514E-01   1.366757E-01   3.641343E-02
   17 C17         2.413779E-03   3.656641E-02  -1.506395E-02
   18 C18        -3.159659E-02   2.364617E-03   1.410931E-02
   19 C19        -3.554417E-02  -7.457720E-04   1.426870E-02
   20 C20         2.020321E-02  -1.181858E-02  -5.755626E-02
   21 H21        -6.871742E-03  -1.982823E-03  -6.852857E-03
   22 H22        -3.924782E-03   8.597386E-03   1.553174E-03
   23 H23         2.228326E-03   6.786327E-03  -4.233712E-03
   24 H24         3.333662E-02  -2.652203E-02  -3.548757E-02
   25 H25         5.058878E-02   5.351090E-02   3.107296E-02
   26 H26        -1.705510E-02  -5.447742E-03   6.035754E-03
   27 H27        -4.996347E-02   2.883620E-02   3.565229E-02
   28 H28         3.093050E-02   3.232964E-02   3.876475E-02
   29 H29        -2.408724E-02  -7.373399E-02  -2.096207E-02
   30 H30        -1.084407E-02  -1.059212E-03  -3.600466E-03
   31 H31        -8.963079E-03  -3.123205E-02  -1.631403E-02
   32 H32         6.832733E-02  -7.977178E-04   1.143850E-02
 -------------   -------------  -------------  -------------
     total        7.654590E-04   6.528711E-04  -2.254546E-04
   
  Peak memory usage:   6741 Mb
  
  end of program der1b
   
 Time(der1b)  user:       37.2  user+sys:       37.2  wallclock:        2.9
  
  start of program geopt
  
 ----------------------------------------------------------------------------
  Geometry optimization step  1
  Total energy:      -767.54833907244 hartrees
 ----------------------------------------------------------------------------
  detected            2  molecular fragments
  
  
  Level shifts adjusted to satisfy step-size constraints
   Step size:    0.3001459
   Cos(theta):   0.9928382
   Final level shift:  -1.6965923E+00
  
  gradient maximum:        2.7495E-01 .  (  4.5000E-04 )
  gradient rms:            5.5144E-02 .  (  3.0000E-04 )
  displacement maximum:    1.1578E-01 .  (  1.8000E-03 )
  displacement rms:        2.6024E-02 .  (  1.2000E-03 )
  
  predicted energy change:  -1.7116E-01
  step size:     0.30012
  trust radius:  0.30000
  
  molecular structure not yet converged...
  
  center of mass moved by:
     x:     7.9745E-03     y:    -2.2011E-03     z:    -2.4505E-04
  
  new geometry: 
                                   angstroms
  atom               x                 y                 z
  C1            0.6165519129      2.8920133359     -0.0099521725 
  C2           -0.8000797510      2.9923058451     -0.0219457656 
  C3           -1.6862752720      1.8950391119     -0.0558400135 
  C4           -1.0902674282      0.6271927778     -0.1205962495 
  C5           -1.4055119805     -0.6997542246     -0.5702740236 
  C6            0.0042281479     -1.6531232272     -0.6295513990 
  C7            1.2576801173     -1.1654988333      0.0277850773 
  C8            0.4172458989     -0.6419195588      0.9571651888 
  C9            0.2045523073      0.5951003845      0.3649363098 
  C10           1.1584869270      1.6415163108      0.1135717702 
  C11           2.5470298713     -2.1961775167      0.5555927688 
  C12           4.2268051879     -2.8248105647      0.7221922108 
  C13           4.7258772814     -4.0020238779      0.1491682218 
  C14           3.8985446348     -3.7029660549     -0.7615001074 
  C15           2.5230920068     -4.2889940765     -0.2863468020 
  C16           1.8172850040     -3.2308124815     -0.0442172654 
  C17           0.3227232301     -3.0380310981     -0.3524809927 
  C18          -0.4542470275     -4.1205766927     -0.0214572738 
  C19           0.3237607429     -5.2663968129      0.1342999810 
  C20           1.7037918372     -5.5841379134      0.2698138420 
  H21           1.2604787835      3.7708581029     -0.0025088139 
  H22          -1.2386058056      3.9735768525     -0.0510042870 
  H23          -2.7644074244      2.0070575555     -0.1173887387 
  H24          -2.5017495113     -0.9323823188     -0.2944142049 
  H25          -0.6841663085     -1.3585337653      1.2614011956 
  H26           2.2533072985      1.5216400626      0.1556792828 
  H27           5.2824686941     -2.3430594476      0.3426025091 
  H28           4.6890692566     -5.1552221047      0.2496992283 
  H29           4.0402445614     -2.3218929099     -1.0218206233 
  H30          -1.5245595006     -4.1115769313      0.0315499169 
  H31           0.7767651570     -5.0883552407     -0.9165336355 
  H32           1.3491782853     -6.6596497604     -0.0792505630 
   
  Warning: atom          29  is not bonded to any other atoms
  nuclear repulsion energy.......    1347.632980223 hartrees
  -------------------------------------------------
 /  end of geometry optimization iteration   1   /
 -------------------------------------------------
   
  Peak memory usage:   4726 Mb
  
  end of program geopt
   
 Time(geopt)  user:        6.2  user+sys:        6.2  wallclock:        0.5
  
  start of program onee
  
  smallest eigenvalue of S:    8.762E-04
  number of canonical orbitals.....          204
  Peak memory usage:   4838 Mb
  
  end of program onee
   
 Time(onee)  user:        2.3  user+sys:        2.3  wallclock:        0.5
  
  start of program probe
  
  Peak memory usage:   4756 Mb
  
  end of program probe
   
 Time(probe)  user:        1.6  user+sys:        1.6  wallclock:        0.4
  
  start of program grid
  
   grid     grid set  grid #  grid sym
  ------    --------  ------  --------
  coarse        0        0        1
  medium        2        1        1
  fine          0        0        1
  ultrafine     4        2        1
  charge       -1        3        1
  gradient      4        2        1
  density       0        0        1
  DFT-fine    -11        4        1
  DFT-med.    -10        5        1
  DFT-grad    -12        6        1
  DFT-der2      0        0        1
  DFT-cphf      0        0        1
  LMP2-enrg     4        2        1
  LMP2-grad     2        1        1
  DFT-cphf2     0        0        1
  PBF-dens      0        0        1
  plotting      0        0        1
  Rel-grad    -17        0        1
  
  number of gridpoints: 
     atom        C1       C2       C3       C4       C5       C6       C7
  grid # 1       96       97       96       97       96      102      100
  grid # 2      339      340      333      353      372      386      380
  grid # 3      223      224      216      143      265      323      123
  grid # 4     4304     4304     4304     4304     4304     4304     4304
  grid # 5     1192     1192     1192     1192     1192     1192     1192
  grid # 6     5226     5226     5226     5226     5226     5226     5226
   
  number of gridpoints: 
     atom        C8       C9      C10      C11      C12      C13      C14
  grid # 1       99       99       97      105       97       93       99
  grid # 2      362      355      345      407      372      341      365
  grid # 3      292      131      209      327      383      216      351
  grid # 4     4304     4304     4304     4304     4304     4304     4304
  grid # 5     1192     1192     1192     1192     1192     1192     1192
  grid # 6     5226     5226     5226     5226     5226     5226     5226
   
  number of gridpoints: 
     atom       C15      C16      C17      C18      C19      C20      H21
  grid # 1       97       98       97       93       96       97      118
  grid # 2      369      349      358      324      365      374      453
  grid # 3       84      100      102       99      380      330     1353
  grid # 4     4304     4304     4304     4304     4304     4304     4304
  grid # 5     1192     1192     1192     1192     1192     1192     1192
  grid # 6     5226     5226     5226     5226     5226     5226     5226
   
  number of gridpoints: 
     atom       H22      H23      H24      H25      H26      H27      H28
  grid # 1      118      118      116      111      118      111      114
  grid # 2      450      455      460      443      448      449      462
  grid # 3     1314     1314     1091      803     1142     1172     1309
  grid # 4     4304     4304     4304     4304     4304     4304     4304
  grid # 5     1192     1192     1192     1192     1192     1192     1192
  grid # 6     5226     5226     5226     5226     5226     5226     5226
   
  number of gridpoints: 
     atom       H29      H30      H31      H32    total
  grid # 1      113      116      101      112     3317
  grid # 2      437      454      413      455    12568
  grid # 3      873     1256      644     1315    18107
  grid # 4     4304     4304     4304     4304   137728
  grid # 5     1192     1192     1192     1192    38144
  grid # 6     5226     5226     5226     5226   167232
   
  Peak memory usage:   4785 Mb
  
  end of program grid
   
 Time(grid)  user:       14.3  user+sys:       14.3  wallclock:        1.5
  
  start of program rwr
  
  Peak memory usage:   4745 Mb
  
  end of program rwr
   
 Time(rwr)  user:       37.8  user+sys:       37.8  wallclock:        3.4
  
  start of program scf
  
 Energy computed with NOPS off.
  
       i  u  d  i  g                   
       t  p  i  c  r                                 RMS    maximum
       e  d  i  u  i                       energy  density   DIIS  
       r  t  s  t  d       total energy    change  change    error 
  
etot    1  N  N  2  U    -767.69375800913           1.8E-03  7.9E-03
etot    2  Y  Y  6  M    -767.71506252552  2.1E-02  8.9E-04  3.6E-03
etot    3  N  Y  2  U    -767.71034941864 -4.7E-03  6.1E-04  9.2E-03
etot    4  Y  Y  6  M    -767.71718723141  6.8E-03  2.0E-04  2.9E-03
etot    5  N  Y  2  U    -767.71762882620  4.4E-04  1.2E-04  1.5E-03
etot    6  Y  Y  6  M    -767.71773791252  1.1E-04  9.3E-05  1.0E-03
etot    7  Y  Y  6  M    -767.71781737952  7.9E-05  7.1E-05  6.0E-04
etot    8  Y  Y  6  M    -767.71786107903  4.4E-05  7.5E-05  3.8E-04
etot    9  Y  Y  6  M    -767.71789749873  3.6E-05  6.2E-05  3.4E-04
etot   10  N  Y  2  U    -767.71790894000  1.1E-05  6.4E-05  2.9E-04
etot   11  Y  Y  6  M    -767.71793093999  2.2E-05  6.9E-05  2.5E-04
etot   12  Y  Y  6  M    -767.71795269805  2.2E-05  1.1E-04  2.1E-04
etot   13  Y  Y  6  M    -767.71798058895  2.8E-05  7.9E-05  1.3E-04
etot   14  Y  Y  6  M    -767.71799507587  1.4E-05  7.6E-05  1.0E-04
etot   15  N  Y  2  U    -767.71799397105 -1.1E-06  5.0E-05  7.1E-05
etot   16  N  Y  2  U    -767.71799811162  4.1E-06  3.4E-05  5.9E-05
etot   17  N  Y  2  U    -767.71800035829  2.2E-06  2.5E-05  3.7E-05
etot   18  N  Y  2  U    -767.71800179149  1.4E-06  1.9E-05  3.6E-05
etot   19  N  Y  2  U    -767.71800253770  7.5E-07  8.8E-06  2.7E-05
etot   20  N  Y  2  U    -767.71800292751  3.9E-07  6.0E-06  2.4E-05
etot   21  N  Y  2  U    -767.71800278893 -1.4E-07  2.2E-05  2.7E-05
etot   22  N  Y  2  U    -767.71800336465  5.8E-07  9.4E-06  2.2E-05
etot   23  N  Y  2  U    -767.71800352131  1.6E-07  7.1E-06  9.5E-06
etot   24  N  Y  2  U    -767.71800359781  7.6E-08  3.0E-06  9.2E-06
etot   25  N  N  2  U    -767.71800360856  1.1E-08  0.0E+00  0.0E+00
  
  
 Energy components, in hartrees:
   (A)  Nuclear repulsion............    1347.63298022301
   (E)  Total one-electron terms.....   -3691.01247468725
   (I)  Total two-electron terms.....    1575.66149085568
   (L)  Electronic energy............   -2115.35098383157  (E+I)
   (N)  Total energy.................    -767.71800360856  (A+L)
   (O)  Gas phase energy.............    -767.71800360856
  
                                 Total             Coulomb       Exchange+Corr.
 Total two-electron terms    1575.66149085568    1687.91655416271    -112.25506330703
   Hamiltonian  1........     809.95102439837     849.92951392591     -39.97848952754
   Hamiltonian  2........     798.38391588933     837.98704023680     -39.60312434747
  
 SCFE: SCF energy: UDFT(b3lyp)      -767.71800360856 hartrees   iterations:  25
  
 
 Alpha HOMO energy:    -0.32555
 Alpha LUMO energy:    -0.25855
 
  Alpha Orbital energies (hartrees): 
   -10.43651   -10.42178   -10.41807   -10.41578   -10.40563   -10.40434
   -10.40156   -10.39288   -10.39038   -10.38031   -10.37718   -10.37542
   -10.37376   -10.36852   -10.33732   -10.32890   -10.31532   -10.31122
   -10.30565   -10.30328    -1.13694    -1.10190    -1.08168    -1.01408
    -0.98507    -0.95512    -0.91323    -0.88863    -0.87061    -0.84109
    -0.80935    -0.79067    -0.75100    -0.74344    -0.72859    -0.70387
    -0.69498    -0.67193    -0.66116    -0.64118    -0.63943    -0.62827
    -0.62067    -0.60859    -0.59570    -0.58249    -0.57190    -0.55887
    -0.55601    -0.54451    -0.53844    -0.53496    -0.52668    -0.50655
    -0.48371    -0.47708    -0.47177    -0.45574    -0.44188    -0.42885
    -0.41704    -0.39723    -0.37337    -0.36451    -0.34380    -0.32555
    -0.25855    -0.23610    -0.21865    -0.20353    -0.17739    -0.16603
    -0.14840    -0.13132    -0.11985    -0.10386
 
 
 Beta HOMO energy:    -0.32351
 Beta LUMO energy:    -0.27784
 
  Beta Orbital energies (hartrees): 
   -10.43267   -10.42239   -10.41382   -10.41300   -10.40528   -10.39944
   -10.39196   -10.38956   -10.38778   -10.38435   -10.38214   -10.37744
   -10.37382   -10.36960   -10.33708   -10.32879   -10.31532   -10.31125
   -10.30565   -10.30327    -1.13964    -1.10010    -1.07303    -1.00829
    -0.98426    -0.95062    -0.91245    -0.88667    -0.86293    -0.84031
    -0.80745    -0.79124    -0.75330    -0.74069    -0.72001    -0.70318
    -0.69542    -0.66637    -0.65545    -0.63815    -0.63428    -0.62637
    -0.61848    -0.60821    -0.59673    -0.58021    -0.57216    -0.55628
    -0.55357    -0.54037    -0.53656    -0.53178    -0.52421    -0.50859
    -0.48359    -0.47595    -0.46942    -0.45048    -0.43408    -0.42030
    -0.39935    -0.37183    -0.36352    -0.34664    -0.32351    -0.27784
    -0.25918    -0.22351    -0.21337    -0.20213    -0.17977    -0.16287
    -0.14712    -0.13069    -0.11856
 
  
  
    Unrestricted Spin Properties ...
    Sz*(Sz+1)      0.750
    <S**2> ...     1.711
  
  
  Peak memory usage:   6747 Mb
  
  end of program scf
   
 Time(scf)  user:      366.3  user+sys:      366.3  wallclock:       26.2
  
  start of program der1a
  
  Peak memory usage:   4838 Mb
  
  end of program der1a
   
 Time(der1a)  user:        1.8  user+sys:        1.8  wallclock:        0.4
  
  start of program rwr
  
  Peak memory usage:   4745 Mb
  
  end of program rwr
   
 Time(rwr)  user:       27.1  user+sys:       27.1  wallclock:        3.5
  
  start of program der1b
  
   
  forces (hartrees/bohr) : total     
   
 atom  label           x              y              z
 ---- --------   -------------  -------------  -------------
    1 C1         -2.608918E-03  -1.752880E-03  -8.539167E-04
    2 C2         -2.963994E-02  -6.437226E-04   1.609909E-03
    3 C3          8.393693E-04   2.396505E-02  -1.418895E-02
    4 C4         -1.681719E-02  -2.049982E-02  -2.048988E-02
    5 C5          1.203192E-03  -3.625646E-03   3.085088E-02
    6 C6         -3.832766E-03  -2.265959E-02   8.632157E-03
    7 C7          4.974557E-02   1.499112E-02  -4.553133E-03
    8 C8         -5.694681E-02  -1.442969E-02   6.307330E-02
    9 C9          5.365637E-02   4.227145E-02   9.750040E-03
   10 C10         1.184296E-02   1.485731E-03   2.114387E-02
   11 C11        -2.492173E-02   4.951310E-03  -2.930495E-02
   12 C12         3.258605E-02   1.052572E-01   2.402496E-02
   13 C13         9.873480E-02  -1.789473E-01   1.010013E-01
   14 C14        -1.179483E-01   7.398675E-02  -1.522280E-01
   15 C15         3.823839E-02  -1.294237E-01  -3.655806E-02
   16 C16        -6.556138E-02   8.067861E-02   2.503686E-02
   17 C17         4.724548E-03   2.161693E-02  -2.584501E-03
   18 C18        -1.772221E-02   5.896288E-03   1.109546E-02
   19 C19        -2.851019E-02   8.617620E-03   5.038435E-03
   20 C20         8.120429E-03  -4.065368E-03  -5.906364E-02
   21 H21        -5.842001E-03  -1.508235E-03  -6.049370E-03
   22 H22        -3.195943E-03   6.851933E-03   1.017578E-03
   23 H23         1.819339E-03   5.584313E-03  -4.138408E-03
   24 H24         3.291837E-02  -2.021033E-02  -3.301529E-02
   25 H25         5.823170E-02   4.561849E-02   1.449864E-02
   26 H26        -1.403016E-02  -5.110559E-03   4.959051E-03
   27 H27        -4.985898E-02   2.872634E-02   3.602156E-02
   28 H28         2.319336E-02   3.631199E-02   3.035972E-02
   29 H29        -2.069648E-02  -8.025582E-02  -2.048152E-02
   30 H30        -9.108487E-03  -8.390115E-04  -3.069777E-03
   31 H31        -1.437264E-02  -3.052284E-02  -1.425665E-02
   32 H32         6.652142E-02   8.301699E-03   1.224535E-02
 -------------   -------------  -------------  -------------
     total        7.617641E-04   6.183517E-04  -4.769660E-04
   
  Peak memory usage:   6741 Mb
  
  end of program der1b
   
 Time(der1b)  user:       38.4  user+sys:       38.4  wallclock:        2.8
  
  start of program geopt
  
 ----------------------------------------------------------------------------
  Geometry optimization step  2
  Total energy:      -767.71800360856 hartrees
 ----------------------------------------------------------------------------
  detected            2  molecular fragments
  
  
  Level shifts adjusted to satisfy step-size constraints
   Step size:    0.3002828
   Cos(theta):   0.9874064
   Final level shift:  -1.4714799E+00
  
  energy change:          -1.6966E-01 .  (  5.0000E-05 )
  gradient maximum:        1.8581E-01 .  (  4.5000E-04 )
  gradient rms:            4.5726E-02 .  (  3.0000E-04 )
  displacement maximum:    1.0133E-01 .  (  1.8000E-03 )
  displacement rms:        2.6036E-02 .  (  1.2000E-03 )
  
  predicted energy change:  -1.4452E-01
  step size:     0.30026
  trust radius:  0.30000
  
  molecular structure not yet converged...
  
  center of mass moved by:
     x:     9.3389E-03     y:    -6.5534E-03     z:     1.0663E-03
  
  new geometry: 
                                   angstroms
  atom               x                 y                 z
  C1            0.5764062700      2.9714991255      0.0033420295 
  C2           -0.8455316892      3.0292972350     -0.0559366964 
  C3           -1.6865104462      1.9052852970     -0.0932173749 
  C4           -1.0428115106      0.6515053863     -0.1053848414 
  C5           -1.3246516544     -0.6882993399     -0.5428141677 
  C6            0.0563376449     -1.6459542786     -0.5742736790 
  C7            1.3173499849     -1.1566228515      0.0770078203 
  C8            0.4941623373     -0.5760957848      1.0260979838 
  C9            0.2618562610      0.6611171245      0.4104527745 
  C10           1.1704469882      1.7425964072      0.1642467018 
  C11           2.5510362011     -2.2670131033      0.5383952678 
  C12           4.0937399933     -2.7889768306      0.6578462065 
  C13           4.6882543173     -3.9945527287      0.1999385562 
  C14           3.8578847232     -3.7662159699     -0.7928745704 
  C15           2.4948600950     -4.3726606482     -0.3455998238 
  C16           1.7938882298     -3.2832872627     -0.0750319273 
  C17           0.3150856591     -3.0532885641     -0.3445777995 
  C18          -0.4618860912     -4.1521050249     -0.0218299217 
  C19           0.3068546887     -5.3305073315      0.0921621233 
  C20           1.7090009972     -5.6679508227      0.2040697946 
  H21           1.1884119908      3.8711386713      0.0058089164 
  H22          -1.3128411553      3.9984572994     -0.1135855452 
  H23          -2.7641603737      1.9838487877     -0.1959074374 
  H24          -2.4120927283     -0.9721205001     -0.3377196106 
  H25          -0.5942483104     -1.2246155835      1.4121099671 
  H26           2.2624455847      1.6627029225      0.2473318623 
  H27           5.1227269929     -2.2718067959      0.2983395693 
  H28           4.7035466495     -5.1205109085      0.4149820357 
  H29           3.9453781471     -2.4201142094     -1.1261322614 
  H30          -1.5327889140     -4.1412754191      0.0647762525 
  H31           0.7128303966     -5.1859887303     -0.9833165963 
  H32           1.4461739199     -6.7561058547     -0.1483834855 
   
  Warning: atom          29  is not bonded to any other atoms
  nuclear repulsion energy.......    1341.748573458 hartrees
  -------------------------------------------------
 /  end of geometry optimization iteration   2   /
 -------------------------------------------------
   
  Peak memory usage:   4726 Mb
  
  end of program geopt
   
 Time(geopt)  user:        6.5  user+sys:        6.5  wallclock:        0.5
  
  start of program onee
  
  smallest eigenvalue of S:    8.868E-04
  number of canonical orbitals.....          204
  Peak memory usage:   4838 Mb
  
  end of program onee
   
 Time(onee)  user:        2.2  user+sys:        2.2  wallclock:        0.5
  
  start of program probe
  
  Peak memory usage:   4756 Mb
  
  end of program probe
   
 Time(probe)  user:        1.4  user+sys:        1.4  wallclock:        0.4
  
  start of program grid
  
   grid     grid set  grid #  grid sym
  ------    --------  ------  --------
  coarse        0        0        1
  medium        2        1        1
  fine          0        0        1
  ultrafine     4        2        1
  charge       -1        3        1
  gradient      4        2        1
  density       0        0        1
  DFT-fine    -11        4        1
  DFT-med.    -10        5        1
  DFT-grad    -12        6        1
  DFT-der2      0        0        1
  DFT-cphf      0        0        1
  LMP2-enrg     4        2        1
  LMP2-grad     2        1        1
  DFT-cphf2     0        0        1
  PBF-dens      0        0        1
  plotting      0        0        1
  Rel-grad    -17        0        1
  
  number of gridpoints: 
     atom        C1       C2       C3       C4       C5       C6       C7
  grid # 1       97       97       97       97       96      102      102
  grid # 2      339      339      335      362      368      387      386
  grid # 3      226      225      218      141      244      294      136
  grid # 4     4304     4304     4304     4304     4304     4304     4304
  grid # 5     1192     1192     1192     1192     1192     1192     1192
  grid # 6     5226     5226     5226     5226     5226     5226     5226
   
  number of gridpoints: 
     atom        C8       C9      C10      C11      C12      C13      C14
  grid # 1       98       98       97      105       95       94      100
  grid # 2      359      350      342      404      366      342      367
  grid # 3      289      129      212      313      329      225      346
  grid # 4     4304     4304     4304     4304     4304     4304     4304
  grid # 5     1192     1192     1192     1192     1192     1192     1192
  grid # 6     5226     5226     5226     5226     5226     5226     5226
   
  number of gridpoints: 
     atom       C15      C16      C17      C18      C19      C20      H21
  grid # 1      101       98       97       92       99       97      118
  grid # 2      370      350      362      325      368      374      453
  grid # 3      100       98      112      108      405      306     1348
  grid # 4     4304     4304     4304     4304     4304     4304     4304
  grid # 5     1192     1192     1192     1192     1192     1192     1192
  grid # 6     5226     5226     5226     5226     5226     5226     5226
   
  number of gridpoints: 
     atom       H22      H23      H24      H25      H26      H27      H28
  grid # 1      118      118      116      108      118      111      114
  grid # 2      450      454      453      447      449      447      456
  grid # 3     1314     1307     1096      890     1175     1147     1333
  grid # 4     4304     4304     4304     4304     4304     4304     4304
  grid # 5     1192     1192     1192     1192     1192     1192     1192
  grid # 6     5226     5226     5226     5226     5226     5226     5226
   
  number of gridpoints: 
     atom       H29      H30      H31      H32    total
  grid # 1      113      118      102      112     3325
  grid # 2      437      455      419      457    12572
  grid # 3      895     1269      676     1331    18237
  grid # 4     4304     4304     4304     4304   137728
  grid # 5     1192     1192     1192     1192    38144
  grid # 6     5226     5226     5226     5226   167232
   
  Peak memory usage:   4785 Mb
  
  end of program grid
   
 Time(grid)  user:       15.3  user+sys:       15.3  wallclock:        1.4
  
  start of program rwr
  
  Peak memory usage:   4745 Mb
  
  end of program rwr
   
 Time(rwr)  user:       35.7  user+sys:       35.7  wallclock:        3.4
  
  start of program scf
  
 Energy computed with NOPS off.
  
       i  u  d  i  g                   
       t  p  i  c  r                                 RMS    maximum
       e  d  i  u  i                       energy  density   DIIS  
       r  t  s  t  d       total energy    change  change    error 
  
etot    1  N  N  2  U    -767.83415250593           1.8E-03  9.6E-03
etot    2  Y  Y  6  M    -767.86280630706  2.9E-02  1.1E-03  5.4E-03
etot    3  N  Y  2  U    -767.85479306623 -8.0E-03  8.2E-04  1.2E-02
etot    4  N  Y  2  U    -767.86619124259  1.1E-02  2.3E-04  5.4E-03
etot    5  Y  Y  6  M    -767.86717176365  9.8E-04  1.7E-04  1.7E-03
etot    6  Y  Y  6  M    -767.86738418486  2.1E-04  1.1E-04  8.7E-04
etot    7  N  Y  2  U    -767.86747835052  9.4E-05  1.1E-04  6.5E-04
etot    8  Y  Y  6  M    -767.86756541441  8.7E-05  1.0E-04  5.3E-04
etot    9  Y  Y  6  M    -767.86763026774  6.5E-05  1.1E-04  3.5E-04
etot   10  Y  Y  6  M    -767.86768291782  5.3E-05  8.3E-05  3.7E-04
etot   11  Y  Y  6  M    -767.86771552785  3.3E-05  7.3E-05  2.5E-04
etot   12  N  Y  2  U    -767.86771624677  7.2E-07  5.2E-05  1.6E-04
etot   13  Y  Y  6  M    -767.86772821363  1.2E-05  4.5E-05  1.2E-04
etot   14  N  Y  2  U    -767.86773406346  5.8E-06  4.8E-05  9.1E-05
etot   15  N  Y  2  U    -767.86773828347  4.2E-06  9.1E-06  7.5E-05
etot   16  N  Y  2  U    -767.86773893975  6.6E-07  3.3E-05  5.0E-05
etot   17  N  Y  2  U    -767.86774002289  1.1E-06  4.0E-06  1.7E-05
etot   18  N  N  2  U    -767.86774010604  8.3E-08  0.0E+00  0.0E+00
  
  
 Energy components, in hartrees:
   (A)  Nuclear repulsion............    1341.74857345777
   (E)  Total one-electron terms.....   -3679.96443562600
   (I)  Total two-electron terms.....    1570.34812206219
   (L)  Electronic energy............   -2109.61631356380  (E+I)
   (N)  Total energy.................    -767.86774010604  (A+L)
   (O)  Gas phase energy.............    -767.86774010604
  
                                 Total             Coulomb       Exchange+Corr.
 Total two-electron terms    1570.34812206219    1682.55949611042    -112.21137404823
   Hamiltonian  1........     807.16729152988     847.12631106252     -39.95901953264
   Hamiltonian  2........     795.84039824784     835.43318504790     -39.59278680006
  
 SCFE: SCF energy: UDFT(b3lyp)      -767.86774010604 hartrees   iterations:  18
  
 
 Alpha HOMO energy:    -0.32498
 Alpha LUMO energy:    -0.25038
 
  Alpha Orbital energies (hartrees): 
   -10.42977   -10.42590   -10.41213   -10.40845   -10.40685   -10.40197
   -10.39790   -10.38429   -10.38191   -10.38059   -10.37747   -10.37358
   -10.36923   -10.36592   -10.33324   -10.32966   -10.31479   -10.31174
   -10.30538   -10.30500    -1.12599    -1.08170    -1.06144    -1.00207
    -0.97144    -0.94641    -0.90706    -0.88263    -0.87266    -0.84002
    -0.80742    -0.78063    -0.74827    -0.73818    -0.72598    -0.70203
    -0.69691    -0.66925    -0.66435    -0.63644    -0.63275    -0.62589
    -0.61213    -0.60448    -0.59505    -0.58178    -0.57695    -0.55632
    -0.55489    -0.54181    -0.53742    -0.53219    -0.52598    -0.50991
    -0.48348    -0.47761    -0.47271    -0.45455    -0.44236    -0.43507
    -0.41436    -0.39874    -0.37373    -0.36130    -0.33778    -0.32498
    -0.25038    -0.22553    -0.21895    -0.20419    -0.17656    -0.14522
    -0.14013    -0.12304    -0.11610    -0.10029
 
 
 Beta HOMO energy:    -0.32434
 Beta LUMO energy:    -0.27426
 
  Beta Orbital energies (hartrees): 
   -10.42646   -10.42431   -10.40774   -10.40772   -10.40391   -10.40238
   -10.38321   -10.38264   -10.38153   -10.38137   -10.37888   -10.37617
   -10.37191   -10.36958   -10.33289   -10.33007   -10.31504   -10.31120
   -10.30559   -10.30478    -1.12923    -1.08016    -1.05339    -0.99596
    -0.97113    -0.94172    -0.90579    -0.88017    -0.86663    -0.83853
    -0.80523    -0.77998    -0.75218    -0.73610    -0.71683    -0.70142
    -0.69685    -0.66693    -0.65866    -0.63264    -0.62810    -0.62417
    -0.61093    -0.60453    -0.59329    -0.57980    -0.57524    -0.55414
    -0.55289    -0.53746    -0.53638    -0.52781    -0.52354    -0.51252
    -0.48323    -0.47575    -0.46970    -0.44849    -0.43379    -0.43037
    -0.39702    -0.37296    -0.35857    -0.34628    -0.32434    -0.27426
    -0.25042    -0.21972    -0.21180    -0.20139    -0.17336    -0.14448
    -0.14006    -0.12204    -0.11460
 
  
  
    Unrestricted Spin Properties ...
    Sz*(Sz+1)      0.750
    <S**2> ...     1.810
  
  
  Peak memory usage:   6747 Mb
  
  end of program scf
   
 Time(scf)  user:      223.7  user+sys:      223.7  wallclock:       15.9
  
  start of program der1a
  
  Peak memory usage:   4838 Mb
  
  end of program der1a
   
 Time(der1a)  user:        1.6  user+sys:        1.6  wallclock:        0.5
  
  start of program rwr
  
  Peak memory usage:   4745 Mb
  
  end of program rwr
   
 Time(rwr)  user:       26.8  user+sys:       26.8  wallclock:        3.5
  
  start of program der1b
  
   
  forces (hartrees/bohr) : total     
   
 atom  label           x              y              z
 ---- --------   -------------  -------------  -------------
    1 C1         -4.441905E-03  -3.021707E-03  -1.842431E-03
    2 C2         -2.064187E-02   1.305557E-03   1.840623E-03
    3 C3          1.501669E-03   1.463556E-02  -1.498429E-02
    4 C4         -9.205592E-03  -1.568799E-02  -1.196047E-02
    5 C5          9.917733E-03  -1.014795E-02   3.122846E-02
    6 C6         -1.250834E-02  -6.626064E-03   2.066277E-02
    7 C7          5.598889E-02  -8.584986E-04   1.522854E-02
    8 C8         -4.787454E-02  -5.178624E-03   3.888681E-02
    9 C9          3.087428E-02   3.156704E-02   6.536455E-03
   10 C10         6.556879E-03  -1.245289E-03   1.991492E-02
   11 C11        -3.035660E-02   6.965925E-03  -3.507701E-02
   12 C12         1.299709E-02   1.035050E-01   3.763403E-03
   13 C13         7.114690E-02  -1.450564E-01   6.963415E-02
   14 C14        -6.571575E-02   5.229288E-02  -1.013928E-01
   15 C15         1.785465E-02  -1.016029E-01  -2.155316E-02
   16 C16        -5.402835E-02   5.463856E-02   2.024829E-02
   17 C17         6.169246E-03   3.278391E-03   6.680761E-03
   18 C18        -7.253059E-03   1.376719E-02   8.475749E-03
   19 C19        -1.857646E-02   9.501015E-03  -9.740727E-03
   20 C20         5.376672E-03   4.782303E-03  -5.629562E-02
   21 H21        -5.052901E-03  -8.213013E-04  -5.267096E-03
   22 H22        -2.390525E-03   5.242287E-03   5.718767E-04
   23 H23         1.445149E-03   4.368336E-03  -4.055109E-03
   24 H24         3.055315E-02  -1.446024E-02  -3.008706E-02
   25 H25         6.225517E-02   3.802308E-02   4.571237E-03
   26 H26        -1.096815E-02  -4.345269E-03   4.330037E-03
   27 H27        -5.127694E-02   2.809316E-02   3.537836E-02
   28 H28         1.310562E-02   3.715205E-02   2.345947E-02
   29 H29        -1.315019E-02  -8.470867E-02  -1.854429E-02
   30 H30        -7.480381E-03  -5.621815E-04  -2.997863E-03
   31 H31        -2.315742E-02  -3.210929E-02  -1.049735E-02
   32 H32         5.917869E-02   1.751557E-02   1.259895E-02
 -------------   -------------  -------------  -------------
     total        8.427810E-04   2.014431E-04  -2.844337E-04
   
  Peak memory usage:   6741 Mb
  
  end of program der1b
   
 Time(der1b)  user:       38.8  user+sys:       38.8  wallclock:        2.9
  
  start of program geopt
  
 ----------------------------------------------------------------------------
  Geometry optimization step  3
  Total energy:      -767.86774010604 hartrees
 ----------------------------------------------------------------------------
  detected            2  molecular fragments
  detected            2  molecular fragments
  
  
  Level shifts adjusted to satisfy step-size constraints
   Step size:    0.3005519
   Cos(theta):   0.9872743
   Final level shift:  -1.4653978E+00
  
  energy change:          -1.4974E-01 .  (  5.0000E-05 )
  gradient maximum:        2.0556E-01 .  (  4.5000E-04 )
  gradient rms:            4.1995E-02 .  (  3.0000E-04 )
  displacement maximum:    1.1910E-01 .  (  1.8000E-03 )
  displacement rms:        2.6060E-02 .  (  1.2000E-03 )
  
  predicted energy change:  -1.3804E-01
  step size:     0.30053
  trust radius:  0.30000
  
  molecular structure not yet converged...
  
  center of mass moved by:
     x:     9.8157E-03     y:    -9.2832E-03     z:     1.7516E-03
  
  new geometry: 
                                   angstroms
  atom               x                 y                 z
  C1            0.5568108448      3.0265289474      0.0134481645 
  C2           -0.8660500620      3.0495543960     -0.0896702781 
  C3           -1.6693833598      1.9040190511     -0.1264262588 
  C4           -0.9880842988      0.6652490956     -0.0841791616 
  C5           -1.2406868055     -0.6848453680     -0.5086227261 
  C6            0.1103832510     -1.6447917115     -0.5131370410 
  C7            1.3840612139     -1.1590462517      0.1309619244 
  C8            0.5771064720     -0.5255557152      1.0923431291 
  C9            0.3218963853      0.7106969876      0.4578681568 
  C10           1.1917262867      1.8172372832      0.2126754325 
  C11           2.5539299743     -2.3405875810      0.5192207676 
  C12           3.9079988264     -2.7165301893      0.5774024152 
  C13           4.6157692045     -3.9301723461      0.2621903123 
  C14           3.8132999111     -3.8012927719     -0.8209334209 
  C15           2.4659516331     -4.4450907638     -0.4059322060 
  C16           1.7655081573     -3.3336326172     -0.1077931968 
  C17           0.3053230371     -3.0725071017     -0.3367386206 
  C18          -0.4694901187     -4.1850846312     -0.0281119785 
  C19           0.2899172270     -5.3931161850      0.0426870721 
  C20           1.7150248479     -5.7376754969      0.1374850291 
  H21           1.1424497454      3.9421708061      0.0085789570 
  H22          -1.3545810561      4.0081485801     -0.1760837833 
  H23          -2.7441734799      1.9539118683     -0.2674450985 
  H24          -2.3159592492     -1.0111583334     -0.3729318290 
  H25          -0.4906911213     -1.1128399659      1.5447795408 
  H26           2.2786757978      1.7706601175      0.3338349924 
  H27           4.9046809621     -2.1515141540      0.2493844578 
  H28           4.6759790613     -5.0129300635      0.5981976278 
  H29           3.8410393995     -2.5013986619     -1.2393985530 
  H30          -1.5392306505     -4.1732166382      0.0951339295 
  H31           0.6350662464     -5.2834538729     -1.0562909221 
  H32           1.5506709005     -6.8331568319     -0.2118310212 
   
  nuclear repulsion energy.......    1341.449289112 hartrees
  -------------------------------------------------
 /  end of geometry optimization iteration   3   /
 -------------------------------------------------
   
  Peak memory usage:   4726 Mb
  
  end of program geopt
   
 Time(geopt)  user:        6.6  user+sys:        6.6  wallclock:        0.5
  
  start of program onee
  
  smallest eigenvalue of S:    8.922E-04
  number of canonical orbitals.....          204
  Peak memory usage:   4838 Mb
  
  end of program onee
   
 Time(onee)  user:        2.1  user+sys:        2.1  wallclock:        0.5
  
  start of program probe
  
  Peak memory usage:   4756 Mb
  
  end of program probe
   
 Time(probe)  user:        1.2  user+sys:        1.2  wallclock:        0.4
  
  start of program grid
  
   grid     grid set  grid #  grid sym
  ------    --------  ------  --------
  coarse        0        0        1
  medium        2        1        1
  fine          0        0        1
  ultrafine     4        2        1
  charge       -1        3        1
  gradient      4        2        1
  density       0        0        1
  DFT-fine    -11        4        1
  DFT-med.    -10        5        1
  DFT-grad    -12        6        1
  DFT-der2      0        0        1
  DFT-cphf      0        0        1
  LMP2-enrg     4        2        1
  LMP2-grad     2        1        1
  DFT-cphf2     0        0        1
  PBF-dens      0        0        1
  plotting      0        0        1
  Rel-grad    -17        0        1
  
  number of gridpoints: 
     atom        C1       C2       C3       C4       C5       C6       C7
  grid # 1       97       97       97       96       98      102      103
  grid # 2      339      341      336      362      364      387      386
  grid # 3      226      224      217      144      226      265      149
  grid # 4     4304     4304     4304     4304     4304     4304     4304
  grid # 5     1192     1192     1192     1192     1192     1192     1192
  grid # 6     5226     5226     5226     5226     5226     5226     5226
   
  number of gridpoints: 
     atom        C8       C9      C10      C11      C12      C13      C14
  grid # 1       98       99       97      105       94       93      102
  grid # 2      363      351      342      382      342      347      373
  grid # 3      282      128      208      269      259      230      356
  grid # 4     4304     4304     4304     4304     4304     4304     4304
  grid # 5     1192     1192     1192     1192     1192     1192     1192
  grid # 6     5226     5226     5226     5226     5226     5226     5226
   
  number of gridpoints: 
     atom       C15      C16      C17      C18      C19      C20      H21
  grid # 1      101       98       99       93       99       96      118
  grid # 2      371      352      364      326      375      370      453
  grid # 3      104       88      131      112      433      281     1345
  grid # 4     4304     4304     4304     4304     4304     4304     4304
  grid # 5     1192     1192     1192     1192     1192     1192     1192
  grid # 6     5226     5226     5226     5226     5226     5226     5226
   
  number of gridpoints: 
     atom       H22      H23      H24      H25      H26      H27      H28
  grid # 1      118      118      116      110      118      110      116
  grid # 2      450      451      454      453      450      445      456
  grid # 3     1315     1310     1096      955     1203     1115     1348
  grid # 4     4304     4304     4304     4304     4304     4304     4304
  grid # 5     1192     1192     1192     1192     1192     1192     1192
  grid # 6     5226     5226     5226     5226     5226     5226     5226
   
  number of gridpoints: 
     atom       H29      H30      H31      H32    total
  grid # 1      113      118      104      113     3336
  grid # 2      437      456      423      459    12560
  grid # 3      918     1285      735     1361    18318
  grid # 4     4304     4304     4304     4304   137728
  grid # 5     1192     1192     1192     1192    38144
  grid # 6     5226     5226     5226     5226   167232
   
  Peak memory usage:   4785 Mb
  
  end of program grid
   
 Time(grid)  user:       14.6  user+sys:       14.6  wallclock:        1.4
  
  start of program rwr
  
  Peak memory usage:   4745 Mb
  
  end of program rwr
   
 Time(rwr)  user:       36.0  user+sys:       36.0  wallclock:        3.4
  
  start of program scf
  
 Energy computed with NOPS off.
  
       i  u  d  i  g                   
       t  p  i  c  r                                 RMS    maximum
       e  d  i  u  i                       energy  density   DIIS  
       r  t  s  t  d       total energy    change  change    error 
  
etot    1  N  N  2  U    -767.95037890984           2.1E-03  1.1E-02
etot    2  Y  Y  6  M    -767.98499765108  3.5E-02  1.3E-03  1.4E-02
etot    3  N  Y  2  U    -767.97729944772 -7.7E-03  1.0E-03  1.6E-02
etot    4  N  Y  2  U    -767.99121444019  1.4E-02  3.3E-04  7.1E-03
etot    5  Y  Y  6  M    -767.99319869429  2.0E-03  1.3E-04  1.4E-03
etot    6  Y  Y  6  M    -767.99342414556  2.3E-04  7.5E-05  6.9E-04
etot    7  N  Y  2  U    -767.99345789272  3.4E-05  5.9E-05  4.0E-04
etot    8  Y  Y  6  M    -767.99348663825  2.9E-05  5.3E-05  3.0E-04
etot    9  Y  Y  6  M    -767.99350783438  2.1E-05  3.9E-05  2.3E-04
etot   10  N  Y  2  U    -767.99351248244  4.6E-06  1.9E-05  1.2E-04
etot   11  N  Y  2  U    -767.99351513585  2.7E-06  1.3E-05  6.9E-05
etot   12  N  Y  2  U    -767.99351614536  1.0E-06  8.9E-06  5.2E-05
etot   13  N  Y  2  U    -767.99351654028  3.9E-07  4.1E-06  1.6E-05
etot   14  N  N  2  U    -767.99351663793  9.8E-08  0.0E+00  0.0E+00
  
  
 Energy components, in hartrees:
   (A)  Nuclear repulsion............    1341.44928911191
   (E)  Total one-electron terms.....   -3679.76290215469
   (I)  Total two-electron terms.....    1570.32009640484
   (L)  Electronic energy............   -2109.44280574985  (E+I)
   (N)  Total energy.................    -767.99351663793  (A+L)
   (O)  Gas phase energy.............    -767.99351663793
  
                                 Total             Coulomb       Exchange+Corr.
 Total two-electron terms    1570.32009640484    1682.56742300457    -112.24732659973
   Hamiltonian  1........     807.03947877319     847.00992488158     -39.97044610839
   Hamiltonian  2........     795.94855970068     835.55749812299     -39.60893842231
  
 SCFE: SCF energy: UDFT(b3lyp)      -767.99351663793 hartrees   iterations:  14
  
 
 Alpha HOMO energy:    -0.32292
 Alpha LUMO energy:    -0.23851
 
  Alpha Orbital energies (hartrees): 
   -10.42240   -10.41780   -10.41752   -10.40567   -10.39838   -10.39798
   -10.38933   -10.38156   -10.37762   -10.37443   -10.37414   -10.37376
   -10.37317   -10.36803   -10.33054   -10.33006   -10.31370   -10.31065
   -10.30532   -10.30434    -1.13032    -1.06740    -1.04536    -0.99316
    -0.96133    -0.93933    -0.90305    -0.89347    -0.87703    -0.83904
    -0.80604    -0.77749    -0.75267    -0.73370    -0.72699    -0.70416
    -0.69970    -0.67745    -0.66892    -0.63600    -0.62758    -0.62435
    -0.60626    -0.60222    -0.59841    -0.58121    -0.57914    -0.55547
    -0.55196    -0.54179    -0.53711    -0.53097    -0.52343    -0.51369
    -0.48447    -0.47866    -0.47359    -0.46044    -0.44990    -0.43517
    -0.40994    -0.39850    -0.37373    -0.35849    -0.33317    -0.32292
    -0.23851    -0.23283    -0.21792    -0.20140    -0.18392    -0.14060
    -0.12079    -0.11875    -0.09803    -0.09309
 
 
 Beta HOMO energy:    -0.32305
 Beta LUMO energy:    -0.26604
 
  Beta Orbital energies (hartrees): 
   -10.42339   -10.41396   -10.41067   -10.40629   -10.39874   -10.39529
   -10.38348   -10.38153   -10.37499   -10.37485   -10.37382   -10.37306
   -10.37264   -10.37138   -10.33064   -10.33015   -10.31383   -10.31011
   -10.30501   -10.30464    -1.13346    -1.06532    -1.03801    -0.98685
    -0.96192    -0.93494    -0.90055    -0.89136    -0.87413    -0.83693
    -0.80529    -0.77392    -0.75550    -0.73265    -0.72263    -0.70171
    -0.69841    -0.67597    -0.66391    -0.63354    -0.62286    -0.62207
    -0.61002    -0.60173    -0.59096    -0.57906    -0.57260    -0.55352
    -0.54968    -0.53918    -0.53574    -0.52424    -0.52163    -0.51592
    -0.48325    -0.47586    -0.47136    -0.45773    -0.44087    -0.43677
    -0.39618    -0.37211    -0.35438    -0.34901    -0.32305    -0.26604
    -0.24213    -0.22429    -0.20803    -0.19863    -0.18133    -0.13858
    -0.11970    -0.11739    -0.09763
 
  
  
    Unrestricted Spin Properties ...
    Sz*(Sz+1)      0.750
    <S**2> ...     1.736
  
  
  Peak memory usage:   6747 Mb
  
  end of program scf
   
 Time(scf)  user:      185.2  user+sys:      185.2  wallclock:       13.7
  
  start of program der1a
  
  Peak memory usage:   4838 Mb
  
  end of program der1a
   
 Time(der1a)  user:        1.9  user+sys:        1.9  wallclock:        0.5
  
  start of program rwr
  
  Peak memory usage:   4745 Mb
  
  end of program rwr
   
 Time(rwr)  user:       26.9  user+sys:       26.9  wallclock:        3.5
  
  start of program der1b
  
   
  forces (hartrees/bohr) : total     
   
 atom  label           x              y              z
 ---- --------   -------------  -------------  -------------
    1 C1         -3.984801E-03  -4.955077E-03  -2.642496E-03
    2 C2         -1.417647E-02   2.631620E-03   2.117538E-03
    3 C3          3.109684E-03   7.960616E-03  -1.457218E-02
    4 C4         -4.355763E-03  -1.278806E-02  -5.515616E-03
    5 C5          1.689521E-02  -1.619330E-02   3.085902E-02
    6 C6         -2.166283E-02   3.966426E-03   2.542674E-02
    7 C7          5.322373E-02  -1.954446E-02   2.069481E-02
    8 C8         -4.362620E-02  -7.383662E-04   2.496802E-02
    9 C9          1.815348E-02   2.292279E-02   4.535463E-03
   10 C10         2.458649E-03  -3.637908E-04   1.821909E-02
   11 C11        -9.753359E-02   4.205293E-02  -3.894650E-02
   12 C12         7.241530E-02   8.026537E-02  -4.218057E-04
   13 C13         4.986654E-02  -1.146495E-01   4.621031E-02
   14 C14        -2.579895E-02   3.508578E-02  -6.934755E-02
   15 C15         2.446378E-03  -8.541980E-02  -1.189226E-02
   16 C16        -4.894974E-02   3.340371E-02   2.213466E-02
   17 C17         7.799116E-03  -4.181760E-03   1.034029E-02
   18 C18        -9.384364E-06   1.637753E-02   8.872098E-03
   19 C19        -1.101750E-02   1.002033E-02  -2.478933E-02
   20 C20         8.489352E-03   1.253089E-02  -4.950576E-02
   21 H21        -4.363911E-03  -2.951486E-04  -4.524721E-03
   22 H22        -1.786733E-03   3.901143E-03   2.002533E-04
   23 H23         1.214667E-03   3.161759E-03  -3.649823E-03
   24 H24         2.738397E-02  -9.722462E-03  -2.661367E-02
   25 H25         6.283026E-02   3.124308E-02  -2.947747E-03
   26 H26        -8.434326E-03  -3.254222E-03   3.755277E-03
   27 H27        -5.069709E-02   2.604528E-02   3.188181E-02
   28 H28         3.746433E-03   3.521218E-02   1.675409E-02
   29 H29        -4.414403E-03  -8.675702E-02  -1.329031E-02
   30 H30        -6.177108E-03  -3.470773E-04  -3.205095E-03
   31 H31        -3.094972E-02  -3.217078E-02  -6.695123E-03
   32 H32         4.893500E-02   2.425511E-02   1.127060E-02
 -------------   -------------  -------------  -------------
     total        1.029242E-03  -3.442959E-04  -3.198970E-04
   
  Peak memory usage:   6741 Mb
  
  end of program der1b
   
 Time(der1b)  user:       37.6  user+sys:       37.6  wallclock:        2.8
  
  start of program geopt
  
 ----------------------------------------------------------------------------
  Geometry optimization step  4
  Total energy:      -767.99351663793 hartrees
 ----------------------------------------------------------------------------
  
  
  Level shifts adjusted to satisfy step-size constraints
   Step size:    0.3002612
   Cos(theta):   0.9424851
   Final level shift:  -1.0307658E+00
  
  energy change:          -1.2578E-01 .  (  5.0000E-05 )
  gradient maximum:        9.9753E-02 .  (  4.5000E-04 )
  gradient rms:            3.3687E-02 .  (  3.0000E-04 )
  displacement maximum:    9.3911E-02 .  (  1.8000E-03 )
  displacement rms:        2.6035E-02 .  (  1.2000E-03 )
  
  predicted energy change:  -1.0144E-01
  step size:     0.30025
  trust radius:  0.30000
  
  molecular structure not yet converged...
  
  center of mass moved by:
     x:     6.8017E-03     y:     2.2515E-03     z:     9.4002E-03
  
  new geometry: 
                                   angstroms
  atom               x                 y                 z
  C1            0.5012518442      3.0733876541      0.0207180960 
  C2           -0.9178995594      3.0553533243     -0.1335607487 
  C3           -1.6789652108      1.8856200928     -0.1703386888 
  C4           -0.9599623831      0.6696577946     -0.0632633593 
  C5           -1.1706385962     -0.6886898036     -0.4726195687 
  C6            0.1539347579     -1.6311528553     -0.4457085126 
  C7            1.4307020370     -1.1423876057      0.1883766466 
  C8            0.6332550339     -0.4729893003      1.1518251397 
  C9            0.3454857045      0.7583698855      0.5066300598 
  C10           1.1752581373      1.8891826905      0.2648372198 
  C11           2.5367822083     -2.3670204516      0.5057523847 
  C12           3.8918141751     -2.7032248264      0.4923816323 
  C13           4.6009164377     -3.9627719531      0.2953545732 
  C14           3.8272065214     -3.8830601042     -0.8356157895 
  C15           2.4500220129     -4.4939166056     -0.4558063324 
  C16           1.7482976573     -3.3621843894     -0.1302966945 
  C17           0.3062761674     -3.0691631817     -0.3197828040 
  C18          -0.4796208811     -4.1759984548     -0.0251453658 
  C19           0.2560257445     -5.4109394915     -0.0057206367 
  C20           1.7014311022     -5.7612198646      0.0713141989 
  H21           1.0559600632      4.0070299003      0.0090184273 
  H22          -1.4293434041      3.9997908628     -0.2544893369 
  H23          -2.7478416672      1.9001365148     -0.3559069771 
  H24          -2.2279476325     -1.0585589956     -0.4229965663 
  H25          -0.3946780753     -1.0267528706      1.6490035241 
  H26           2.2546753951      1.8805233730      0.4293543780 
  H27           4.8805118715     -2.1579448698      0.1692032300 
  H28           4.6175997092     -4.9944693750      0.7394290302 
  H29           3.8836586441     -2.6498884038     -1.3410168130 
  H30          -1.5473603022     -4.1487315963      0.1278377508 
  H31           0.5042705358     -5.3513460870     -1.1306172036 
  H32           1.6086819332     -6.8461862051     -0.2866586269 
   
  nuclear repulsion energy.......    1337.232917959 hartrees
  -------------------------------------------------
 /  end of geometry optimization iteration   4   /
 -------------------------------------------------
   
  Peak memory usage:   4726 Mb
  
  end of program geopt
   
 Time(geopt)  user:        6.5  user+sys:        6.5  wallclock:        0.5
  
  start of program onee
  
  smallest eigenvalue of S:    8.872E-04
  number of canonical orbitals.....          204
  Peak memory usage:   4838 Mb
  
  end of program onee
   
 Time(onee)  user:        2.3  user+sys:        2.3  wallclock:        0.5
  
  start of program probe
  
  Peak memory usage:   4756 Mb
  
  end of program probe
   
 Time(probe)  user:        1.4  user+sys:        1.4  wallclock:        0.4
  
  start of program grid
  
   grid     grid set  grid #  grid sym
  ------    --------  ------  --------
  coarse        0        0        1
  medium        2        1        1
  fine          0        0        1
  ultrafine     4        2        1
  charge       -1        3        1
  gradient      4        2        1
  density       0        0        1
  DFT-fine    -11        4        1
  DFT-med.    -10        5        1
  DFT-grad    -12        6        1
  DFT-der2      0        0        1
  DFT-cphf      0        0        1
  LMP2-enrg     4        2        1
  LMP2-grad     2        1        1
  DFT-cphf2     0        0        1
  PBF-dens      0        0        1
  plotting      0        0        1
  Rel-grad    -17        0        1
  
  number of gridpoints: 
     atom        C1       C2       C3       C4       C5       C6       C7
  grid # 1       97       97       97       99       98      101      103
  grid # 2      339      340      337      354      358      381      390
  grid # 3      231      223      217      143      209      245      173
  grid # 4     4304     4304     4304     4304     4304     4304     4304
  grid # 5     1192     1192     1192     1192     1192     1192     1192
  grid # 6     5226     5226     5226     5226     5226     5226     5226
   
  number of gridpoints: 
     atom        C8       C9      C10      C11      C12      C13      C14
  grid # 1       99       98       96      102       94       94       97
  grid # 2      361      355      340      389      338      348      374
  grid # 3      274      135      209      269      214      252      342
  grid # 4     4304     4304     4304     4304     4304     4304     4304
  grid # 5     1192     1192     1192     1192     1192     1192     1192
  grid # 6     5226     5226     5226     5226     5226     5226     5226
   
  number of gridpoints: 
     atom       C15      C16      C17      C18      C19      C20      H21
  grid # 1      101       98       99       93       99       97      118
  grid # 2      372      351      365      327      380      366      453
  grid # 3      118       93      141      117      437      261     1341
  grid # 4     4304     4304     4304     4304     4304     4304     4304
  grid # 5     1192     1192     1192     1192     1192     1192     1192
  grid # 6     5226     5226     5226     5226     5226     5226     5226
   
  number of gridpoints: 
     atom       H22      H23      H24      H25      H26      H27      H28
  grid # 1      118      118      116      110      118      111      116
  grid # 2      451      451      455      455      451      446      457
  grid # 3     1319     1305     1100     1002     1226     1117     1352
  grid # 4     4304     4304     4304     4304     4304     4304     4304
  grid # 5     1192     1192     1192     1192     1192     1192     1192
  grid # 6     5226     5226     5226     5226     5226     5226     5226
   
  number of gridpoints: 
     atom       H29      H30      H31      H32    total
  grid # 1      108      118      107      113     3330
  grid # 2      446      453      432      452    12567
  grid # 3      969     1271      806     1356    18467
  grid # 4     4304     4304     4304     4304   137728
  grid # 5     1192     1192     1192     1192    38144
  grid # 6     5226     5226     5226     5226   167232
   
  Peak memory usage:   4785 Mb
  
  end of program grid
   
 Time(grid)  user:       17.2  user+sys:       17.2  wallclock:        1.6
  
  start of program rwr
  
  Peak memory usage:   4745 Mb
  
  end of program rwr
   
 Time(rwr)  user:       35.6  user+sys:       35.6  wallclock:        3.2
  
  start of program scf
  
 Energy computed with NOPS off.
  
       i  u  d  i  g                   
       t  p  i  c  r                                 RMS    maximum
       e  d  i  u  i                       energy  density   DIIS  
       r  t  s  t  d       total energy    change  change    error 
  
etot    1  N  N  2  U    -768.07717082373           1.3E-03  5.4E-03
etot    2  Y  Y  6  M    -768.09514925757  1.8E-02  4.5E-04  2.2E-03
etot    3  N  Y  2  U    -768.09475846801 -3.9E-04  2.7E-04  5.7E-03
etot    4  Y  Y  6  M    -768.09611648008  1.4E-03  9.0E-05  1.2E-03
etot    5  Y  Y  6  M    -768.09620005318  8.4E-05  6.3E-05  9.9E-04
etot    6  Y  Y  6  M    -768.09626047942  6.0E-05  4.6E-05  4.2E-04
etot    7  N  Y  2  U    -768.09629861206  3.8E-05  4.1E-05  3.1E-04
etot    8  N  Y  2  U    -768.09631209611  1.3E-05  3.1E-05  1.4E-04
etot    9  N  Y  2  U    -768.09631793769  5.8E-06  2.5E-05  9.1E-05
etot   10  N  Y  2  U    -768.09632053189  2.6E-06  8.9E-06  4.7E-05
etot   11  N  Y  2  U    -768.09632103224  5.0E-07  4.7E-06  4.2E-05
etot   12  N  N  2  U    -768.09632118810  1.6E-07  0.0E+00  0.0E+00
  
  
 Energy components, in hartrees:
   (A)  Nuclear repulsion............    1337.23291795872
   (E)  Total one-electron terms.....   -3671.70405947403
   (I)  Total two-electron terms.....    1566.37482032722
   (L)  Electronic energy............   -2105.32923914681  (E+I)
   (N)  Total energy.................    -768.09632118810  (A+L)
   (O)  Gas phase energy.............    -768.09632118810
  
                                 Total             Coulomb       Exchange+Corr.
 Total two-electron terms    1566.37482032722    1678.62274701834    -112.24792669112
   Hamiltonian  1........     805.03475008735     845.00512659324     -39.97037650589
   Hamiltonian  2........     794.00775127754     833.61762042510     -39.60986914756
  
 SCFE: SCF energy: UDFT(b3lyp)      -768.09632118810 hartrees   iterations:  12
  
 
 Alpha HOMO energy:    -0.32155
 Alpha LUMO energy:    -0.23364
 
  Alpha Orbital energies (hartrees): 
   -10.41849   -10.41559   -10.40666   -10.40258   -10.39506   -10.39203
   -10.38403   -10.38269   -10.37624   -10.37603   -10.37463   -10.37146
   -10.36931   -10.36601   -10.33245   -10.33067   -10.31506   -10.31208
   -10.30735   -10.30587    -1.11809    -1.06015    -1.03631    -0.98806
    -0.95402    -0.93629    -0.90177    -0.88990    -0.87468    -0.83993
    -0.80598    -0.77443    -0.75158    -0.73092    -0.72780    -0.70640
    -0.70082    -0.67581    -0.66694    -0.63630    -0.62609    -0.62370
    -0.60442    -0.59694    -0.59350    -0.58148    -0.57670    -0.55701
    -0.55303    -0.53989    -0.53916    -0.53042    -0.52622    -0.51231
    -0.48736    -0.48247    -0.47457    -0.46309    -0.44913    -0.43726
    -0.40805    -0.39983    -0.37546    -0.35884    -0.33641    -0.32155
    -0.23364    -0.23038    -0.22089    -0.19971    -0.18101    -0.13658
    -0.11918    -0.10714    -0.09372    -0.08190
 
 
 Beta HOMO energy:    -0.32237
 Beta LUMO energy:    -0.26560
 
  Beta Orbital energies (hartrees): 
   -10.41909   -10.41194   -10.40417   -10.39973   -10.39519   -10.39046
   -10.38424   -10.37916   -10.37477   -10.37433   -10.37229   -10.37031
   -10.36979   -10.36809   -10.33282   -10.33061   -10.31508   -10.31147
   -10.30696   -10.30618    -1.12087    -1.05863    -1.02986    -0.98173
    -0.95363    -0.93240    -0.89944    -0.88766    -0.87089    -0.83732
    -0.80524    -0.77018    -0.75374    -0.73059    -0.72481    -0.70381
    -0.69916    -0.67429    -0.66288    -0.63373    -0.62475    -0.61781
    -0.60680    -0.59875    -0.58583    -0.57968    -0.56964    -0.55551
    -0.54995    -0.53909    -0.53661    -0.52550    -0.52244    -0.51413
    -0.48562    -0.47965    -0.47287    -0.46145    -0.44262    -0.43899
    -0.39803    -0.37332    -0.35475    -0.35000    -0.32237    -0.26560
    -0.23798    -0.22507    -0.20866    -0.19424    -0.17834    -0.13450
    -0.11763    -0.10615    -0.09085
 
  
  
    Unrestricted Spin Properties ...
    Sz*(Sz+1)      0.750
    <S**2> ...     1.653
  
  
  Peak memory usage:   6747 Mb
  
  end of program scf
   
 Time(scf)  user:      168.7  user+sys:      168.7  wallclock:       12.2
  
  start of program der1a
  
  Peak memory usage:   4838 Mb
  
  end of program der1a
   
 Time(der1a)  user:        2.5  user+sys:        2.5  wallclock:        0.5
  
  start of program rwr
  
  Peak memory usage:   4745 Mb
  
  end of program rwr
   
 Time(rwr)  user:       25.2  user+sys:       25.2  wallclock:        3.4
  
  start of program der1b
  
   
  forces (hartrees/bohr) : total     
   
 atom  label           x              y              z
 ---- --------   -------------  -------------  -------------
    1 C1         -3.599721E-03  -4.955715E-03  -3.518847E-03
    2 C2         -9.440639E-03   3.900047E-03   2.347465E-03
    3 C3          3.970607E-03   3.790668E-03  -1.350335E-02
    4 C4         -2.337700E-03  -9.759409E-03  -1.137708E-03
    5 C5          2.028452E-02  -2.249881E-02   2.791562E-02
    6 C6         -3.000122E-02   1.392628E-02   2.390918E-02
    7 C7          5.102996E-02  -3.766129E-02   2.004635E-02
    8 C8         -4.046588E-02   4.872723E-04   1.751733E-02
    9 C9          1.176270E-02   1.873588E-02   3.544929E-03
   10 C10        -2.254618E-04   4.000115E-04   1.703937E-02
   11 C11        -9.673916E-02   5.098972E-02  -4.314973E-02
   12 C12         8.020556E-02   5.688760E-02  -3.821415E-03
   13 C13         2.969969E-02  -9.197576E-02   4.059440E-02
   14 C14        -1.780995E-02   3.346787E-02  -5.456534E-02
   15 C15        -9.387607E-03  -7.324057E-02  -7.379011E-04
   16 C16        -2.491057E-02   2.837738E-02   2.289046E-02
   17 C17         6.318777E-03  -8.017958E-03   9.345921E-03
   18 C18         2.689515E-03   1.826953E-02   9.062251E-03
   19 C19        -1.342143E-03   4.890715E-03  -3.357465E-02
   20 C20         9.779438E-03   2.214432E-02  -4.978765E-02
   21 H21        -3.596510E-03  -5.231690E-05  -3.864512E-03
   22 H22        -1.359419E-03   2.792623E-03  -1.719817E-04
   23 H23         1.054649E-03   2.150013E-03  -3.161382E-03
   24 H24         2.345875E-02  -5.706868E-03  -2.262403E-02
   25 H25         5.970491E-02   2.682458E-02  -5.845260E-03
   26 H26        -6.410277E-03  -2.348156E-03   3.141353E-03
   27 H27        -4.961838E-02   2.885389E-02   2.588342E-02
   28 H28         2.365905E-03   3.042946E-02   1.192402E-02
   29 H29        -6.543448E-03  -8.384106E-02  -3.453324E-03
   30 H30        -4.935958E-03  -2.489827E-04  -3.528635E-03
[...]
etot   12  N  Y  2  U    -768.50795044372  4.7E-07  7.3E-06  4.1E-05
etot   13  N  Y  2  U    -768.50795069831  2.5E-07  5.1E-06  4.3E-05
etot   14  N  Y  2  U    -768.50795089290  1.9E-07  3.1E-06  3.9E-05
etot   15  N  N  2  U    -768.50795089706  4.2E-09  0.0E+00  0.0E+00
  
  
 Energy components, in hartrees:
   (A)  Nuclear repulsion............    1332.19653685655
   (E)  Total one-electron terms.....   -3662.84905565109
   (I)  Total two-electron terms.....    1562.14456789748
   (L)  Electronic energy............   -2100.70448775361  (E+I)
   (N)  Total energy.................    -768.50795089706  (A+L)
   (O)  Gas phase energy.............    -768.50795089706
  
                                 Total             Coulomb       Exchange+Corr.
 Total two-electron terms    1562.14456789748    1674.67381303702    -112.52924513954
   Hamiltonian  1........     803.80496908409     843.88168624033     -40.07671715624
   Hamiltonian  2........     791.08208646257     830.79212679669     -39.71004033412
  
 SCFE: SCF energy: UDFT(b3lyp)      -768.50795089706 hartrees   iterations:  15
  
 
 Alpha HOMO energy:    -0.32115
 Alpha LUMO energy:    -0.24872
 
  Alpha Orbital energies (hartrees): 
   -10.38788   -10.38337   -10.38156   -10.37832   -10.37551   -10.37341
   -10.37226   -10.37142   -10.36716   -10.36365   -10.35952   -10.35825
   -10.35405   -10.33878   -10.33197   -10.32992   -10.31992   -10.31593
   -10.31280   -10.30580    -1.08764    -1.03548    -1.00976    -0.98347
    -0.93792    -0.92662    -0.90489    -0.87667    -0.86622    -0.84333
    -0.80142    -0.77760    -0.75321    -0.74356    -0.72752    -0.71823
    -0.69995    -0.68167    -0.64747    -0.64299    -0.63068    -0.61675
    -0.60372    -0.59404    -0.58950    -0.58230    -0.56923    -0.55863
    -0.55791    -0.55231    -0.54362    -0.53669    -0.51956    -0.51702
    -0.50143    -0.49078    -0.47683    -0.47303    -0.45536    -0.44395
    -0.41463    -0.40251    -0.37699    -0.36280    -0.34200    -0.32115
    -0.24872    -0.21810    -0.19369    -0.16711    -0.13997    -0.12177
    -0.11559    -0.07208    -0.04493    -0.02729
 
 
 Beta HOMO energy:    -0.31804
 Beta LUMO energy:    -0.28717
 
  Beta Orbital energies (hartrees): 
   -10.38659   -10.38482   -10.37818   -10.37489   -10.37407   -10.37366
   -10.37231   -10.37184   -10.37049   -10.36467   -10.36082   -10.35906
   -10.35248   -10.33117   -10.33071   -10.32500   -10.32019   -10.31650
   -10.31180   -10.30546    -1.08689    -1.03446    -1.00530    -0.97929
    -0.93510    -0.92484    -0.89752    -0.87091    -0.86412    -0.83741
    -0.80110    -0.77334    -0.75417    -0.74350    -0.72908    -0.71621
    -0.69293    -0.67850    -0.64566    -0.63896    -0.62855    -0.61338
    -0.60358    -0.59573    -0.58551    -0.58202    -0.56678    -0.55637
    -0.55481    -0.54696    -0.54077    -0.53448    -0.51903    -0.51091
    -0.49969    -0.48876    -0.47255    -0.46812    -0.45509    -0.44290
    -0.41298    -0.40140    -0.37310    -0.34893    -0.31804    -0.28717
    -0.23277    -0.18946    -0.18269    -0.15822    -0.14037    -0.12007
    -0.11328    -0.06736    -0.04043
 
  
  
    Unrestricted Spin Properties ...
    Sz*(Sz+1)      0.750
    <S**2> ...     1.625
  
  
  Peak memory usage:   6747 Mb
  
  end of program scf
   
 Time(scf)  user:      199.1  user+sys:      199.1  wallclock:       14.2
  
  start of program der1a
  
  Peak memory usage:   4838 Mb
  
  end of program der1a
   
 Time(der1a)  user:        2.0  user+sys:        2.0  wallclock:        0.5
  
  start of program rwr
  
  Peak memory usage:   4745 Mb
  
  end of program rwr
   
 Time(rwr)  user:       29.3  user+sys:       29.3  wallclock:        3.9
  
  start of program der1b
  
   
  forces (hartrees/bohr) : total     
   
 atom  label           x              y              z
 ---- --------   -------------  -------------  -------------
    1 C1         -3.625401E-03   7.761600E-05  -7.637860E-03
    2 C2          2.771832E-03   7.455421E-03   4.052939E-03
    3 C3          2.041441E-03  -1.015120E-02  -3.967846E-03
    4 C4          1.394519E-02   9.941609E-03  -1.127008E-03
    5 C5          1.203893E-03  -1.657855E-02   8.413396E-03
    6 C6         -1.164515E-02   1.144270E-02   8.048782E-03
    7 C7         -2.101026E-02  -4.541260E-02   2.581553E-02
    8 C8          3.957065E-02   3.012871E-02  -8.992740E-03
    9 C9         -1.703144E-02  -1.223502E-03  -1.395197E-02
   10 C10        -9.306293E-03   9.065522E-04   2.107064E-02
   11 C11         5.491101E-04   2.801334E-02  -1.476294E-02
   12 C12         1.734838E-02  -1.732838E-02   2.221811E-02
   13 C13        -1.445874E-02  -2.500345E-03  -3.171892E-04
   14 C14        -7.007222E-03   4.882567E-03   3.668868E-04
   15 C15         9.245326E-03   2.227711E-02   4.248789E-02
   16 C16        -2.707658E-03  -3.167732E-03  -1.201542E-02
   17 C17         1.228412E-02  -9.640854E-03   1.046630E-02
   18 C18        -6.605719E-03  -9.170513E-03  -2.041696E-02
   19 C19         3.102133E-02   2.365044E-02  -1.497150E-02
   20 C20        -4.158718E-02  -3.325403E-03  -4.548022E-02
   21 H21         3.798207E-04  -1.457249E-04  -7.331471E-04
   22 H22        -4.943779E-04  -8.920556E-04  -8.950674E-04
   23 H23        -2.993472E-05   3.633504E-04  -1.244539E-03
   24 H24        -7.624183E-04   3.658535E-03  -3.541003E-03
   25 H25         8.935004E-03  -5.760544E-03   1.572012E-03
   26 H26         2.284760E-04   6.861936E-04  -4.784655E-04
   27 H27        -1.285338E-02   2.823460E-02  -1.497633E-03
   28 H28         3.860443E-03   2.560732E-03   4.072038E-03
   29 H29         1.088709E-02  -2.928454E-02  -2.163560E-02
   30 H30        -1.124533E-03   1.766929E-03  -5.217933E-03
   31 H31        -9.628007E-03  -2.082941E-02   2.392464E-02
   32 H32         7.132095E-03  -5.961338E-04   6.669891E-03
 -------------   -------------  -------------  -------------
     total        1.526502E-03   3.893273E-05   2.939866E-04
   
  Peak memory usage:   6741 Mb
  
  end of program der1b
   
 Time(der1b)  user:       37.0  user+sys:       37.0  wallclock:        2.7
  
  start of program geopt
  
 ----------------------------------------------------------------------------
  Geometry optimization step 12
  Total energy:      -768.50795089706 hartrees
 ----------------------------------------------------------------------------
  
  
  Level shifts adjusted to satisfy step-size constraints
   Step size:    0.3004458
   Cos(theta):   0.9794578
   Final level shift:  -3.9049304E-01
  
  energy change:          -3.9790E-02 .  (  5.0000E-05 )
  gradient maximum:        5.9900E-02 .  (  4.5000E-04 )
  gradient rms:            1.1303E-02 .  (  3.0000E-04 )
  displacement maximum:    1.4635E-01 .  (  1.8000E-03 )
  displacement rms:        2.6050E-02 .  (  1.2000E-03 )
  
  predicted energy change:  -3.6801E-02
  step size:     0.30042
  trust radius:  0.30000
  
  molecular structure not yet converged...
  
  center of mass moved by:
     x:    -1.9967E-03     y:     2.2195E-03     z:    -6.6240E-04
  
  new geometry: 
                                   angstroms
  atom               x                 y                 z
  C1            0.2994775821      3.2170585163     -0.0906420879 
  C2           -1.0390927970      2.9557637151     -0.4210370336 
  C3           -1.5651501465      1.6690966809     -0.2947945242 
  C4           -0.7483519645      0.6319035985      0.2113268540 
  C5           -0.9304695961     -0.7766946462     -0.0782084530 
  C6            0.1238223819     -1.6796161862     -0.0059863311 
  C7            1.4799133281     -1.2047376004      0.4617839561 
  C8            1.1379236223     -0.1729823691      1.4667660170 
  C9            0.5547726527      0.9881309331      0.7643781517 
  C10           1.1290583032      2.2100113204      0.4434317440 
  C11           2.3833068551     -2.2897609461      0.3295669228 
  C12           3.8102418644     -2.6532793938      0.3018154344 
  C13           4.2987614081     -4.0314774371      0.5972908141 
  C14           3.8246586591     -4.0804468588     -0.7662811819 
  C15           2.3501046010     -4.5243032224     -0.7252305014 
  C16           1.6599586825     -3.3587935104     -0.2374620303 
  C17           0.2429228670     -3.1112869381     -0.2442946569 
  C18          -0.4595287658     -4.2976059255     -0.1006225745 
  C19           0.1821412240     -5.5367119981     -0.5249408337 
  C20           1.6430081445     -5.7037146742     -0.5977709985 
  H21           0.6999711062      4.2113320966     -0.2558463430 
  H22          -1.6603410605      3.7667982814     -0.7836145316 
  H23          -2.5696477760      1.4453063977     -0.6412415070 
  H24          -1.8953097625     -1.1405052550     -0.4210844996 
  H25           0.5639167083     -0.4876929562      2.3355535313 
  H26           2.1414846320      2.4336959027      0.7597440234 
  H27           4.7050769494     -2.1044966122      0.0435240976 
  H28           3.9820324899     -4.7310874634      1.3586763282 
  H29           4.0859908786     -3.2939221448     -1.4655040402 
  H30          -1.5191565775     -4.3336397734      0.1396779497 
  H31          -0.3618085495     -6.0942274269     -1.2958442568 
  H32           1.9775197845     -6.6382932146     -1.0343308332 
   
  nuclear repulsion energy.......    1332.517299308 hartrees
  -------------------------------------------------
 /  end of geometry optimization iteration  12   /
 -------------------------------------------------
   
  Peak memory usage:   4726 Mb
  
  end of program geopt
   
 Time(geopt)  user:        6.6  user+sys:        6.6  wallclock:        0.6
  
  start of program onee
  
  smallest eigenvalue of S:    7.603E-04
  number of canonical orbitals.....          204
  Peak memory usage:   4838 Mb
  
  end of program onee
   
 Time(onee)  user:        1.4  user+sys:        1.4  wallclock:        0.4
  
  start of program probe
  
  Peak memory usage:   4756 Mb
  
  end of program probe
   
 Time(probe)  user:        1.3  user+sys:        1.3  wallclock:        0.4
  
  start of program grid
  
   grid     grid set  grid #  grid sym
  ------    --------  ------  --------
  coarse        0        0        1
  medium        2        1        1
  fine          0        0        1
  ultrafine     4        2        1
  charge       -1        3        1
  gradient      4        2        1
  density       0        0        1
  DFT-fine    -11        4        1
  DFT-med.    -10        5        1
  DFT-grad    -12        6        1
  DFT-der2      0        0        1
  DFT-cphf      0        0        1
  LMP2-enrg     4        2        1
  LMP2-grad     2        1        1
  DFT-cphf2     0        0        1
  PBF-dens      0        0        1
  plotting      0        0        1
  Rel-grad    -17        0        1
  
  number of gridpoints: 
     atom        C1       C2       C3       C4       C5       C6       C7
  grid # 1       97       97       97      102       95      101      100
  grid # 2      339      338      341      368      338      360      381
  grid # 3      229      228      230      185      166      176      209
  grid # 4     4304     4304     4304     4304     4304     4304     4304
  grid # 5     1192     1192     1192     1192     1192     1192     1192
  grid # 6     5226     5226     5226     5226     5226     5226     5226
   
  number of gridpoints: 
     atom        C8       C9      C10      C11      C12      C13      C14
  grid # 1       97       99       97       98       94       98       95
  grid # 2      344      365      339      371      334      360      348
  grid # 3      206      132      213      175      123      332      248
  grid # 4     4304     4304     4304     4304     4304     4304     4304
  grid # 5     1192     1192     1192     1192     1192     1192     1192
  grid # 6     5226     5226     5226     5226     5226     5226     5226
   
  number of gridpoints: 
     atom       C15      C16      C17      C18      C19      C20      H21
  grid # 1       99       97      100       94       96       94      118
  grid # 2      367      355      368      339      360      340      452
  grid # 3      158      139      241      184      240      146     1333
  grid # 4     4304     4304     4304     4304     4304     4304     4304
  grid # 5     1192     1192     1192     1192     1192     1192     1192
  grid # 6     5226     5226     5226     5226     5226     5226     5226
   
  number of gridpoints: 
     atom       H22      H23      H24      H25      H26      H27      H28
  grid # 1      118      116      116      116      118      112      117
  grid # 2      451      448      448      450      455      445      455
  grid # 3     1333     1214     1070     1267     1310     1174     1355
  grid # 4     4304     4304     4304     4304     4304     4304     4304
  grid # 5     1192     1192     1192     1192     1192     1192     1192
  grid # 6     5226     5226     5226     5226     5226     5226     5226
   
  number of gridpoints: 
     atom       H29      H30      H31      H32    total
  grid # 1      111      117      118      117     3341
  grid # 2      432      456      450      455    12452
  grid # 3     1074     1267     1288     1322    18967
  grid # 4     4304     4304     4304     4304   137728
  grid # 5     1192     1192     1192     1192    38144
  grid # 6     5226     5226     5226     5226   167232
   
  Peak memory usage:   4785 Mb
  
  end of program grid
   
 Time(grid)  user:       13.4  user+sys:       13.4  wallclock:        1.5
  
  start of program rwr
  
  Peak memory usage:   4745 Mb
  
  end of program rwr
   
 Time(rwr)  user:       34.1  user+sys:       34.1  wallclock:        3.2
  
  start of program scf
  
 Energy computed with NOPS off.
  
       i  u  d  i  g                   
       t  p  i  c  r                                 RMS    maximum
       e  d  i  u  i                       energy  density   DIIS  
       r  t  s  t  d       total energy    change  change    error 
  
etot    1  N  N  2  U    -768.53129118951           9.7E-04  4.8E-03
etot    2  Y  Y  6  M    -768.54282148478  1.2E-02  4.1E-04  2.4E-03
etot    3  N  Y  2  U    -768.54235162101 -4.7E-04  4.2E-04  4.6E-03
etot    4  Y  Y  6  M    -768.54347673608  1.1E-03  1.1E-04  2.7E-03
etot    5  Y  Y  6  M    -768.54379807224  3.2E-04  1.3E-04  8.7E-04
etot    6  Y  Y  6  M    -768.54387582951  7.8E-05  9.8E-05  1.2E-03
etot    7  Y  Y  6  M    -768.54394826069  7.2E-05  9.9E-05  1.2E-03
etot    8  N  Y  2  U    -768.54403952330  9.1E-05  1.1E-04  1.1E-03
etot    9  Y  Y  6  M    -768.54411274072  7.3E-05  2.0E-05  1.2E-03
etot   10  N  Y  2  U    -768.54413114293  1.8E-05  1.2E-05  1.2E-03
etot   11  N  Y  2  U    -768.54413961836  8.5E-06  1.4E-04  1.2E-03
etot   12  Y  Y  6  M    -768.54423591319  9.6E-05  1.9E-04  1.2E-03
etot   13  Y  Y  6  M    -768.54410430234 -1.3E-04  1.7E-04  1.2E-03
etot   14  Y  Y  6  M    -768.54401860091 -8.6E-05  7.7E-05  9.6E-04
etot   15  Y  Y  6  M    -768.54400093287 -1.8E-05  5.1E-04  9.8E-04
etot   16  N  Y  2  U    -768.54435423955  3.5E-04  4.1E-04  8.5E-04
etot   17  Y  Y  6  M    -768.54462634736  2.7E-04  1.1E-04  1.1E-03
etot   18  Y  Y  6  M    -768.54470156518  7.5E-05  1.5E-04  1.1E-03
etot   19  Y  Y  6  M    -768.54459683830 -1.0E-04  1.8E-04  1.2E-03
etot   20  Y  Y  6  M    -768.54472557155  1.3E-04  6.7E-04  1.1E-03
etot   21  N  Y  2  U    -768.54416621757 -5.6E-04  8.1E-04  1.5E-03
etot   22  Y  Y  6  M    -768.54472668684  5.6E-04  5.8E-04  1.9E-03
etot   23  N  Y  2  U    -768.54404344254 -6.8E-04  3.5E-04  3.6E-03
etot   24  Y  Y  6  M    -768.54434098255  3.0E-04  1.1E-03  2.5E-03
etot   25  N  Y  2  U    -768.54520604201  8.7E-04  5.0E-05  1.2E-03
etot   26  N  Y  2  U    -768.54526761658  6.2E-05  1.2E-04  4.7E-04
etot   27  Y  Y  6  M    -768.54532292989  5.5E-05  1.2E-04  4.5E-04
etot   28  Y  Y  6  M    -768.54537749313  5.5E-05  5.8E-05  3.9E-04
etot   29  Y  Y  6  M    -768.54538063049  3.1E-06  2.6E-05  8.7E-04
etot   30  N  Y  2  U    -768.54535091869 -3.0E-05  1.1E-04  1.2E-03
etot   31  Y  Y  6  M    -768.54527154179 -7.9E-05  3.7E-05  1.5E-03
etot   32  N  Y  2  U    -768.54531903099  4.7E-05  2.4E-05  1.0E-03
etot   33  N  Y  2  U    -768.54533589110  1.7E-05  7.9E-05  9.0E-04
etot   34  Y  Y  6  M    -768.54538138983  4.5E-05  2.4E-04  6.4E-04
etot   35  Y  Y  6  M    -768.54548469907  1.0E-04  9.5E-05  3.8E-04
etot   36  Y  Y  6  M    -768.54552409696  3.9E-05  3.1E-04  2.9E-04
etot   37  N  Y  2  U    -768.54562496028  1.0E-04  1.4E-04  4.9E-04
etot   38  Y  Y  6  M    -768.54568575347  6.1E-05  2.4E-04  6.3E-04
etot   39  Y  Y  6  M    -768.54558573098 -1.0E-04  1.5E-04  4.0E-04
etot   40  Y  Y  6  M    -768.54564584757  6.0E-05  7.8E-06  5.6E-04
etot   41  N  Y  2  U    -768.54564140728 -4.4E-06  5.1E-04  5.7E-04
etot   42  Y  Y  6  M    -768.54542552951 -2.2E-04  3.6E-05  3.5E-04
etot   43  N  Y  2  U    -768.54545949961  3.4E-05  7.9E-05  4.7E-04
etot   44  Y  Y  6  M    -768.54549203691  3.3E-05  4.5E-05  5.4E-04
etot   45  N  Y  2  U    -768.54550490775  1.3E-05  6.7E-05  5.7E-04
etot   46  Y  Y  6  M    -768.54553259702  2.8E-05  1.7E-04  6.1E-04
etot   47  Y  Y  6  M    -768.54546467618 -6.8E-05  2.1E-04  4.4E-04
etot   48  Y  N  6  M    -768.54555495969  9.0E-05  0.0E+00  0.0E+00
  
 ERROR 2256: fatal error
  
  SCF convergence failure:  Maximum number of iterations reached


 ----------------------------------------------------------------------
 Jaguar cannot recover from this error and will now abort. 
 For technical support please contact the Schrodinger Support Center at
 http://www.schrodinger.com/supportcenter/ or help@schrodinger.com
 ----------------------------------------------------------------------



 Total cpu seconds     user:    4249.211   user+sys:    4249.211

  
Date:          Sun 08 Jan 2017 22:32:54
SCHRODINGER:   /home/applications/Schrodinger_Suites_2016-3
uname -a:      Linux n044 2.6.32-431.el6.x86_64 #1 SMP Fri Nov 22 03:15:09 UTC 2013 x86_64 x86_64 x86_64 GNU/Linux
FQDN:          n044.panther.net
Main memory:   48374 MB
Free disk:     39865522 MB
Host ID:       40f2e94e2b76
Machine name:  n044
OS:            CentOS release 6.5 (Final)
CPU:           Intel(R) Xeon(R) CPU E5-2650 0 @ 2.00GHz
Processors:    16
Memory:        50724499 kB
Swap:          0 kB
kernel:        2.6.32-431.el6.x86_64
glibc:         2.12
Product:       aacg-v17015-Linux-x86_64 (4d5e4891b95edc3974c2f897a8f2bbfda884f701)
Product:       bioluminate-v24015-Linux-x86_64 (c7e9ddecc01a31ee6f1f49fd0866fec40be878d9)
Product:       canvas-v29015-Linux-x86_64 (eefcb58a94f04937200c16cc72ce65c92553d20f)
Product:       combiglide-v42015-Linux-x86_64 (649832a5082f66cb6c92b108724a8a540362cfc8)
Product:       desmond-v47015-Linux-x86_64 (cd195a3f6f7c69c2e4a7d397341063b5fd7f9fa7)
Product:       epik-v37015-Linux-x86_64 (3a54a2d4762d4d26ff3f381b6eba74ffec5b135e)
Product:       glide-v72015-Linux-x86_64 (7bda026d4634ee2331fde20a7d677e0633c1458c)
Product:       impact-v72015-Linux-x86_64 (78357f574412e54dad3121cb0c6c311417a07a40)
Product:       jaguar-v93015-Linux-x86_64 (c979cf15abdb397bfe3d00837bb358b46bdb9998)
Product:       knime-v35015-Linux-x86_64 (fe637e1275d976d9c56b403a2c6666f075125988)
Product:       macromodel-v113015-Linux-x86_64 (c5bdb4b8bf816c7fdd53141b85dce76bf6aeaad9)
Product:       maestro-v107015-Linux-x86_64 (c112f21020c11ad6d55a6f13bf2f9e71852ad421)
Product:       mcpro-v43015-Linux-x86_64 (a66fce8e103e80d6ab062d78a9dd96a664b153ee)
Product:       mmshare-v35015-Linux-x86_64 (6deaa6dca9205019a9800e1f617340ea168c2739)
Product:       phase-v48015-Linux-x86_64 (5f5e3df18b3bb719c7300fee47d9ebb55737e27a)
Product:       pldb-v35015-Linux-x86_64 (5fa9a4c6731880caf6cab7034454a839dd077a79)
Product:       psp-v45015-Linux-x86_64 (af3c2b23dcf79d506aa27a3bffa4cca73631134b)
Product:       qikprop-v49015-Linux-x86_64 (5521a265f711fdfde92d556bb69a9e3f62beb1bd)
