Job reserpine_1 started on n079 at Sun Jan  8 22:27:27 2017
jobid: u01-0-5873028b

  +--------------------------------------------------------------------+
  |  Jaguar version 9.3, release  15                                   |
  |                                                                    |
  |  Copyright Schrodinger, Inc.                                       |
  |  All Rights Reserved.                                              |
  |                                                                    |
  |  The following have contributed to Jaguar (listed alphabetically): |
  |  Mike Beachy, Art Bochevarov, Dale Braden, Yixiang Cao,            |
  |  Chris Cortis, Rich Friesner, Bill Goddard, Hod Greeley,           |
  |  Tom Hughes, Leif Jacobson, Jean-Marc Langlois,                    |
  |  Daniel Mainz, Rob Murphy, Dean Philipp,                           |
  |  Tom Pollard, Murco Ringnalda, Mark Watson.                        |
  |                                                                    |
  |  Use of this program should be acknowledged in publications as:    |
  |                                                                    |
  |  Jaguar, version 9.3, Schrodinger, Inc., New York, NY, 2016.       |
  |                                                                    |
  |  A. D. Bochevarov, E. Harder, T. F. Hughes, J. R. Greenwood,       |
  |  D. A. Braden, D. M. Philipp, D. Rinaldo, M. D. Halls,             |
  |  J. Zhang, R. A. Friesner, "Jaguar: A High-Performance Quantum     |
  |  Chemistry Software Program with Strengths in Life and Materials   |
  |  Sciences", Int. J. Quantum Chem., 2013, 113(18), 2110-2142.       |
  +--------------------------------------------------------------------+
  
  start of program pre
  
  Job name: reserpine_1
  Executables used: /home/applications/Schrodinger_Suites_2016-3/jaguar-v9.3/bin/Linux-x86_64
  Temporary files : /scratch/Schrodinger_Suites/pbeni001/reserpine_1#u01-0-5873028b
  Maestro file (input):  reserpine_1.mae
  Maestro file (output): reserpine_1.01.mae
  
  basis set:             6-31g                           
  net molecular charge:    1
  multiplicity:            2
  
  Using up to  16 threads per process
  
  number of basis functions....          476
  
 Input geometry:
                                   angstroms
  atom               x                 y                 z
  C1            0.9137435000      0.0158843000      0.0699234000 
  O2            2.3375869000     -0.0004414000      0.0669840000 
  C3            2.7760636000      0.3894341000      1.3054145000 
  C4            2.9733506000      1.7465801000      1.5486654000 
  C5            3.5159913000      2.1732711000      2.7601758000 
  C6            4.0055723000      1.2081751000      3.6548302000 
  C7            3.6510896000     -0.1337895000      3.4486514000 
  C8            3.0478967000     -0.5874018000      2.2659476000 
  N9            4.0347043000     -0.8212962000      4.5785456000 
  H10           3.7980039000     -1.7938200000      4.7528015000 
  C11           4.7673149000      0.0113612000      5.4124489000 
  C12           4.8852032000      1.2754870000      4.7956487000 
  C13           5.4986147000      2.5445584000      5.5625210000 
  C14           6.1563229000      2.0126825000      7.0709528000 
  N15           5.6196798000      0.7537807000      7.8180693000 
  C16           5.1390937000     -0.3634450000      6.8774461000 
  H17           5.9946378000     -1.0064523000      6.7401398000 
  C18           4.0707297000     -1.2473369000      7.4819776000 
  C19           4.3429038000     -1.3994971000      8.9874005000 
  H20           3.5314732000     -1.9956479000      8.7111541000 
  C21           4.1911748000     -0.1876985000      9.8675039000 
  H22           4.5954083000     -0.3135938000     10.8844104000 
  C23           4.9166622000      0.9919916000      9.1659560000 
  C24           2.7274443000      0.0387327000     10.1184859000 
  C25           1.8538718000     -1.0397911000     10.6780876000 
  H26           1.8400919000     -1.1312969000     11.7644619000 
  C27           2.4371438000     -2.5039364000     10.0564923000 
  H28           2.0407421000     -2.5098497000      9.0190559000 
  C29           4.4176979000     -2.5815849000      9.9416669000 
  H30           4.7666014000     -2.3595940000     10.9583928000 
  C31           6.1269902000     -2.5798536000      9.1050590000 
  O32           6.3487357000     -2.9539528000      7.9971233000 
  O33           7.2167476000     -1.9640007000      9.8490870000 
  C34           8.7057624000     -1.9213917000      9.3431896000 
  O35           1.5388318000     -3.5825344000     10.5645070000 
  C36           0.0473991000     -3.4174290000     10.3840908000 
  O37           0.3387001000     -0.6154725000     10.3990170000 
  C38          -0.3341654000      0.6292941000     10.4181988000 
  O39          -1.4737334000      0.8059379000     10.8371579000 
  C40           0.2241676000      1.7395442000      9.6348907000 
  C41           0.7723826000      1.3027086000      8.5062271000 
  C42           1.7341395000      2.1173780000      7.9969455000 
  C43           1.9444228000      3.4887194000      8.2467702000 
  C44           1.0023543000      4.0071141000      9.0442779000 
  C45           0.1574150000      3.1328500000      9.7782439000 
  O46           1.0171715000      5.3525579000      9.0165771000 
  C47          -0.1115932000      5.9239443000      9.5823058000 
  O48           3.0172591000      4.2001947000      7.7641350000 
  C49           3.0241815000      5.5742951000      7.4367700000 
  O50           2.4811466000      1.2536943000      7.3156070000 
  C51           3.3682308000      2.0976177000      6.7993337000 
  H52           0.5725199000     -0.2723599000     -0.9267967000 
  H53           0.5311707000      1.0190912000      0.2886416000 
  H54           0.5235620000     -0.7070073000      0.7940863000 
  H55           2.7555402000      2.4785456000      0.7774977000 
  H56           3.6608950000      3.2263127000      2.9655271000 
  H57           2.8744864000     -1.6409455000      2.0601148000 
  H58           4.7169440000      3.3201591000      5.7612304000 
  H59           6.0823511000      3.2308564000      4.9340442000 
  H60           6.1659971000      2.8457246000      7.8046598000 
  H61           7.1947512000      1.7826878000      6.8439680000 
  H62           4.0844152000     -2.2480206000      6.9963587000 
  H63           3.0023389000     -0.9632975000      7.3019117000 
  H64           5.6581810000      1.3340146000      9.9017667000 
  H65           4.2067388000      1.8268324000      9.1866519000 
  H66           2.4117692000      0.0065083000      9.1045205000 
  H67           2.5086883000      0.9973184000     10.5880307000 
  H68           9.3802002000     -1.5420364000     10.1466685000 
  H69           8.8985827000     -1.2478758000      8.4851485000 
  H70           9.0878912000     -2.9252924000      9.1080087000 
  H71          -0.4512057000     -4.3235538000     10.7643617000 
  H72          -0.3276556000     -3.3100735000      9.3451928000 
  H73          -0.4063006000     -2.6246735000     11.0005504000 
  H74           0.7586355000      0.2455801000      8.2289565000 
  H75          -0.5872193000      3.5399087000     10.4367409000 
  H76          -0.0498481000      6.9858817000      9.3655153000 
  H77          -0.0399024000      5.7426790000     10.6521980000 
  H78          -1.0110584000      5.5027488000      9.1254488000 
  H79           3.8898976000      5.8008907000      6.7948365000 
  H80           3.1537469000      6.1615127000      8.3469148000 
  H81           2.1302808000      5.8186822000      6.8654154000 
  H82           4.0881378000      1.4129322000      6.6460012000 
  H83           4.0057577000      2.6706030000      7.4816569000 
  H84           2.9931718000      2.5263202000      5.8821945000 
   
  principal moments of inertia:
        amu*angstrom^2:     6515.03495     8009.52588    10242.63345
                g*cm^2: 1.08184687E-36 1.33001290E-36 1.70082909E-36
   
  rotational constants:
               cm^(-1):      0.00258750      0.00210470      0.00164583
                   GHz:      0.07757119      0.06309724      0.04934073
   
  Molecular weight:     608.27 amu
   
  Stoichiometry: C33N2H40O9
  Molecular Point Group: C1      
  Point Group used: C1
  
  detected            2  molecular fragments
 
Number of optimization coordinates:   278
Number of independent coordinates:    278
Number of non-redundant coordinates:  246
Number of frozen coordinates:           0
Number of harmonic constraints:         0
 
Number of geometric degrees of freedom:   246
Maximum geometric degrees of freedom:     246
 " " " " " excluding dummy atoms:         246
 
  nuclear repulsion energy.......    5909.505511665 hartrees
 
 Non-default options chosen:
   SCF calculation type: UDFT(b3lyp)                 
   UDFT=Becke_3_Parameter/HF+Slater+Becke88+VWN+LYP (B3LYP)
   Geometry will be optimized in redundant internal coordinates
   Electrostatic potential fit to point charges on atomic centers
   Electrostatic potential fitting constrained to reproduce
     total charge:                yes
     dipole moment:               yes
     traceless quadrupole moment: no 
     traceless octapole moment:   no 
  
 Temporary integer options set:
     73=  2
  
  Peak memory usage:   3789 Mb
  
  end of program pre
   
 Time(pre)  user:        7.6  user+sys:        7.6  wallclock:        3.6
  
  start of program onee
  
  smallest eigenvalue of S:    5.131E-04
  number of canonical orbitals.....          476
  Peak memory usage:   3817 Mb
  
  end of program onee
   
 Time(onee)  user:        8.5  user+sys:        8.5  wallclock:        2.0
  
  start of program hfig
  
  initial wavefunction generated automatically from atomic wavefunctions
  
  -------------------
  Alpha orbital space
  -------------------
 
  Irreducible     Total no   No of occupied orbitals 
  representation  orbitals   Shell_1  Shell_2    ...
  No Symm          476        162
  ------------------------
  Orbital occupation/shell    1.000
 
  ------------------
  Beta orbital space
  ------------------
 
  Irreducible     Total no   No of occupied orbitals 
  representation  orbitals   Shell_1  Shell_2    ...
  No Symm          476        161
  ------------------------
  Orbital occupation/shell    1.000
 
  
  
    Unrestricted Spin Properties ...
    Sz*(Sz+1) ..............     0.750
    <S**2> of initial guess      0.750
  
  
  Peak memory usage:   3746 Mb
  
  end of program hfig
   
 Time(hfig)  user:        6.2  user+sys:        6.2  wallclock:        3.5
  
  start of program probe
  
  Peak memory usage:   3733 Mb
  
  end of program probe
   
 Time(probe)  user:        5.6  user+sys:        5.6  wallclock:        1.2
  
  start of program grid
  
   grid     grid set  grid #  grid sym
  ------    --------  ------  --------
  coarse        0        0        1
  medium        2        1        1
  fine          0        0        1
  ultrafine     4        2        1
  charge       -1        3        1
  gradient      4        2        1
  density       0        0        1
  DFT-fine    -11        4        1
  DFT-med.    -10        5        1
  DFT-grad    -12        6        1
  DFT-der2      0        0        1
  DFT-cphf      0        0        1
  LMP2-enrg     4        2        1
  LMP2-grad     2        1        1
  DFT-cphf2     0        0        1
  PBF-dens      0        0        1
  plotting      0        0        1
  Rel-grad    -17        0        1
  
  number of gridpoints: 
     atom        C1       O2       C3       C4       C5       C6       C7
  grid # 1       75      117       98       96       96       98      100
  grid # 2      265      453      355      334      336      352      355
  grid # 3        6      654      138      170      184      141      220
  grid # 4     4304     4304     4304     4304     4304     4304     4304
  grid # 5     1192     1192     1192     1192     1192     1192     1192
  grid # 6     5226     5226     5226     5226     5226     5226     5226
   
  number of gridpoints: 
     atom        C8       N9      H10      C11      C12      C13      C14
  grid # 1       96       98      113       95       98       89       87
  grid # 2      335      333      435      360      366      308      302
  grid # 3      174      169      803       85      164        7        6
  grid # 4     4304     4304     4304     4304     4304     4304     4304
  grid # 5     1192     1192     1192     1192     1192     1192     1192
  grid # 6     5226     5226     5226     5226     5226     5226     5226
   
  number of gridpoints: 
     atom       N15      C16      H17      C18      C19      H20      C21
  grid # 1      106       89      105       86       92       90       92
  grid # 2      396      310      418      288      320      351      313
  grid # 3       68        6      439        6        7       43        7
  grid # 4     4304     4304     4304     4304     4304     4304     4304
  grid # 5     1192     1192     1192     1192     1192     1192     1192
  grid # 6     5226     5226     5226     5226     5226     5226     5226
   
  number of gridpoints: 
     atom       H22      C23      C24      C25      H26      C27      H28
  grid # 1      105       90       84       93      111       93      100
  grid # 2      418      299      286      330      439      345      403
  grid # 3      516        7        6        6      844       20      350
  grid # 4     4304     4304     4304     4304     4304     4304     4304
  grid # 5     1192     1192     1192     1192     1192     1192     1192
  grid # 6     5226     5226     5226     5226     5226     5226     5226
   
  number of gridpoints: 
     atom       C29      H30      C31      O32      O33      C34      O35
  grid # 1       96      110      100      119      116       79      118
  grid # 2      349      427      373      483      462      279      469
  grid # 3      202      769      149      783      465        6      691
  grid # 4     4304     4304     4304     4304     4304     4304     4304
  grid # 5     1192     1192     1192     1192     1192     1192     1192
  grid # 6     5226     5226     5226     5226     5226     5226     5226
   
  number of gridpoints: 
     atom       C36      O37      C38      O39      C40      C41      C42
  grid # 1       79      114       97      123       97       92       93
  grid # 2      274      439      360      513      347      326      347
  grid # 3        6      137      132     1403       73      179       94
  grid # 4     4304     4304     4304     4304     4304     4304     4304
  grid # 5     1192     1192     1192     1192     1192     1192     1192
  grid # 6     5226     5226     5226     5226     5226     5226     5226
   
  number of gridpoints: 
     atom       C43      C44      C45      O46      C47      O48      C49
  grid # 1       95       97       94      112       78      113       76
  grid # 2      348      346      334      426      249      417      260
  grid # 3       87      151      139      160        6      125        6
  grid # 4     4304     4304     4304     4304     4304     4304     4304
  grid # 5     1192     1192     1192     1192     1192     1192     1192
  grid # 6     5226     5226     5226     5226     5226     5226     5226
   
  number of gridpoints: 
     atom       O50      C51      H52      H53      H54      H55      H56
  grid # 1      110       74      113      109      110      115      114
  grid # 2      415      245      449      437      438      446      445
  grid # 3      126        6     1301      970      997     1088      940
  grid # 4     4304     4304     4304     4304     4304     4304     4304
  grid # 5     1192     1192     1192     1192     1192     1192     1192
  grid # 6     5226     5226     5226     5226     5226     5226     5226
   
  number of gridpoints: 
     atom       H57      H58      H59      H60      H61      H62      H63
  grid # 1      115       98      111      108      110      103       99
  grid # 2      446      393      443      428      441      412      404
  grid # 3     1070      170     1008      653      867      421      215
  grid # 4     4304     4304     4304     4304     4304     4304     4304
  grid # 5     1192     1192     1192     1192     1192     1192     1192
  grid # 6     5226     5226     5226     5226     5226     5226     5226
   
  number of gridpoints: 
     atom       H64      H65      H66      H67      H68      H69      H70
  grid # 1      109      101       94      105      113      110      111
  grid # 2      426      398      377      417      448      442      446
  grid # 3      774      210       10      496     1273      905     1148
  grid # 4     4304     4304     4304     4304     4304     4304     4304
  grid # 5     1192     1192     1192     1192     1192     1192     1192
  grid # 6     5226     5226     5226     5226     5226     5226     5226
   
  number of gridpoints: 
     atom       H71      H72      H73      H74      H75      H76      H77
  grid # 1      109      110      105      105      111      111      108
  grid # 2      445      441      424      416      428      445      435
  grid # 3     1252      982      642      546      708     1175      975
  grid # 4     4304     4304     4304     4304     4304     4304     4304
  grid # 5     1192     1192     1192     1192     1192     1192     1192
  grid # 6     5226     5226     5226     5226     5226     5226     5226
   
  number of gridpoints: 
     atom       H78      H79      H80      H81      H82      H83      H84
  grid # 1      112      111      109      110       88       92      102
  grid # 2      435      438      437      437      360      369      410
  grid # 3      994      911      944      889       22       35      397
  grid # 4     4304     4304     4304     4304     4304     4304     4304
  grid # 5     1192     1192     1192     1192     1192     1192     1192
  grid # 6     5226     5226     5226     5226     5226     5226     5226
   
  number of gridpoints: 
     atom     total
  grid # 1     8505
  grid # 2    32349
  grid # 3    36129
  grid # 4   361536
  grid # 5   100128
  grid # 6   438984
   
  Peak memory usage:   3772 Mb
  
  end of program grid
   
 Time(grid)  user:       90.2  user+sys:       90.2  wallclock:        8.0
  
  start of program rwr
  
  Peak memory usage:   3766 Mb
  
  end of program rwr
   
 Time(rwr)  user:      129.7  user+sys:      129.7  wallclock:       15.3
  
  start of program scf
  
 number of electrons..........        323
 number of alpha electrons....        162
 number of beta electrons.....        161
 number of alpha orbitals.....        476
 number of beta orbitals......        476
 number of alpha occupied orb..       162
 number of alpha virtual orb...       314
 number of beta occupied orb...       161
 number of beta virtual orb....       315
 SCF type: UDFT=Becke_3_Parameter/HF+Slater+Becke88+VWN+LYP (B3LYP)
 Energy computed with NOPS off.
  
       i  u  d  i  g                   
       t  p  i  c  r                                 RMS    maximum
       e  d  i  u  i                       energy  density   DIIS  
       r  t  s  t  d       total energy    change  change    error 
  
etot    1  N  N  5  M   -2059.56428057402           2.7E-02  1.3E-01
etot    2  Y  Y  6  M   -2016.85403089834 -4.3E+01  2.7E-02  4.4E-01
etot    3  Y  Y  6  M   -2047.47029695968  3.1E+01  1.7E-02  1.9E-01
etot    4  N  Y  2  U   -2045.07224783009 -2.4E+00  1.6E-02  1.9E-01
etot    5  N  Y  2  U   -2060.93579179856  1.6E+01  8.2E-03  2.5E-01
etot    6  Y  Y  6  M   -2065.54286246722  4.6E+00  5.4E-03  1.4E-01
etot    7  N  Y  2  U   -2064.19406543252 -1.3E+00  4.5E-03  1.3E-01
etot    8  N  Y  2  U   -2066.18154707110  2.0E+00  1.3E-03  4.4E-02
etot    9  Y  Y  6  M   -2066.34685329251  1.7E-01  7.8E-04  1.1E-02
etot   10  N  Y  2  U   -2066.36175322985  1.5E-02  4.5E-04  6.0E-03
etot   11  Y  Y  6  M   -2066.36596990716  4.2E-03  1.4E-04  8.1E-03
etot   12  Y  Y  6  M   -2066.36856120480  2.6E-03  8.3E-05  6.1E-03
etot   13  N  Y  2  U   -2066.36869326942  1.3E-04  8.8E-05  6.5E-03
etot   14  Y  Y  6  M   -2066.37035126251  1.7E-03  1.3E-04  4.1E-03
etot   15  Y  Y  6  M   -2066.37158856215  1.2E-03  9.2E-05  2.1E-03
etot   16  Y  Y  6  M   -2066.37162781262  3.9E-05  3.1E-05  1.8E-03
etot   17  N  Y  2  U   -2066.37175140160  1.2E-04  1.5E-05  3.5E-04
etot   18  N  Y  2  U   -2066.37175881033  7.4E-06  1.4E-05  6.3E-04
etot   19  N  Y  2  U   -2066.37177414151  1.5E-05  8.3E-06  2.1E-04
etot   20  N  Y  2  U   -2066.37177691175  2.8E-06  5.2E-06  7.5E-05
etot   21  N  Y  2  U   -2066.37177828254  1.4E-06  3.0E-06  4.3E-05
etot   22  N  N  2  U   -2066.37177873796  4.6E-07  0.0E+00  0.0E+00
  
  
 Energy components, in hartrees:
   (A)  Nuclear repulsion............    5909.50551166547
   (E)  Total one-electron terms.....  -14548.48716751164
   (I)  Total two-electron terms.....    6572.60987710821
   (L)  Electronic energy............   -7975.87729040343  (E+I)
   (N)  Total energy.................   -2066.37177873796  (A+L)
   (O)  Gas phase energy.............   -2066.37177873796
  
                                 Total             Coulomb       Exchange+Corr.
 Total two-electron terms    6572.60987710821    6857.56682050154    -284.95694339333
   Hamiltonian  1........    3338.27644224374    3439.54379917716    -101.26735693342
   Hamiltonian  2........    3317.18108077106    3418.02302132438    -100.84194055332
  
 SCFE: SCF energy: UDFT(b3lyp)     -2066.37177873796 hartrees   iterations:  22
  
 
 Alpha HOMO energy:    -0.30725
 Alpha LUMO energy:    -0.21304
 
  Alpha Orbital energies (hartrees): 
   -19.28609   -19.28544   -19.27469   -19.27122   -19.26972   -19.25997
   -19.25951   -19.23476   -19.23429   -14.51769   -14.49497   -10.46090
   -10.41891   -10.38480   -10.38310   -10.37765   -10.37349   -10.37123
   -10.36055   -10.35807   -10.35585   -10.35322   -10.35316   -10.35001
   -10.34732   -10.34717   -10.34676   -10.33968   -10.33650   -10.32499
   -10.31873   -10.31842   -10.31795   -10.31462   -10.31437   -10.31410
   -10.31209   -10.30013   -10.29808   -10.29644   -10.29413   -10.28930
   -10.28616   -10.27344    -1.25338    -1.21476    -1.20526    -1.17262
    -1.17250    -1.16687    -1.13241    -1.10185    -1.09786    -1.08317
    -1.04996    -1.00683    -0.98858    -0.97604    -0.94333    -0.93313
    -0.90676    -0.89813    -0.88163    -0.87338    -0.86717    -0.85706
    -0.84338    -0.83596    -0.81531    -0.81018    -0.80413    -0.79532
    -0.78559    -0.78128    -0.76935    -0.75725    -0.74500    -0.73643
    -0.72546    -0.71971    -0.71414    -0.70746    -0.69739    -0.67790
    -0.67048    -0.66636    -0.65560    -0.64857    -0.63909    -0.63716
    -0.62856    -0.62278    -0.62172    -0.61510    -0.60516    -0.59977
    -0.59740    -0.58920    -0.58653    -0.58403    -0.58107    -0.57820
    -0.57094    -0.56699    -0.56571    -0.56137    -0.55983    -0.55721
    -0.55579    -0.55279    -0.55193    -0.54662    -0.54423    -0.54104
    -0.53387    -0.53313    -0.52961    -0.52709    -0.52585    -0.52295
    -0.51819    -0.51728    -0.51335    -0.51124    -0.50677    -0.50312
    -0.50149    -0.49596    -0.49108    -0.48916    -0.48447    -0.48147
    -0.47481    -0.46998    -0.46725    -0.46325    -0.46047    -0.45572
    -0.45180    -0.44914    -0.43591    -0.43548    -0.43153    -0.42644
    -0.41444    -0.40869    -0.40270    -0.39975    -0.39629    -0.38634
    -0.37630    -0.37562    -0.37027    -0.36534    -0.35658    -0.35397
    -0.34729    -0.33736    -0.32608    -0.31754    -0.31442    -0.30725
    -0.21304    -0.15042    -0.13656    -0.10453    -0.10072    -0.09695
    -0.08721    -0.08214    -0.06174    -0.05813
 
 
 Beta HOMO energy:    -0.30597
 Beta LUMO energy:    -0.27230
 
  Beta Orbital energies (hartrees): 
   -19.28627   -19.28522   -19.27471   -19.27116   -19.26944   -19.25947
   -19.25917   -19.23465   -19.23415   -14.51745   -14.49133   -10.46147
   -10.41890   -10.38469   -10.38110   -10.37754   -10.37336   -10.36990
   -10.35895   -10.35816   -10.35494   -10.35310   -10.35304   -10.35005
   -10.34720   -10.34659   -10.34393   -10.33962   -10.33653   -10.32496
   -10.31873   -10.31824   -10.31781   -10.31484   -10.31319   -10.31302
   -10.31218   -10.29878   -10.29808   -10.29717   -10.29414   -10.28913
   -10.28593   -10.27332    -1.25244    -1.21427    -1.20523    -1.17242
    -1.17133    -1.16650    -1.12983    -1.10164    -1.09814    -1.08291
    -1.04584    -1.00353    -0.98809    -0.97435    -0.93963    -0.93019
    -0.90637    -0.89632    -0.87992    -0.87234    -0.86602    -0.85475
    -0.84142    -0.83527    -0.81469    -0.80992    -0.80329    -0.79451
    -0.78435    -0.77989    -0.76864    -0.75594    -0.74279    -0.73545
    -0.72431    -0.71870    -0.71298    -0.70568    -0.69499    -0.67628
    -0.66968    -0.66434    -0.65536    -0.64735    -0.63826    -0.63605
    -0.62771    -0.62220    -0.62046    -0.61385    -0.60465    -0.59835
    -0.59604    -0.58807    -0.58572    -0.58298    -0.57891    -0.57758
    -0.56983    -0.56527    -0.56378    -0.56056    -0.55943    -0.55506
    -0.55410    -0.55181    -0.55141    -0.54444    -0.54228    -0.53982
    -0.53295    -0.53192    -0.52826    -0.52588    -0.52497    -0.52220
    -0.51756    -0.51609    -0.51270    -0.51044    -0.50594    -0.50166
    -0.50002    -0.49519    -0.49016    -0.48848    -0.48351    -0.48049
    -0.47317    -0.46905    -0.46535    -0.46221    -0.45828    -0.45249
    -0.45075    -0.44776    -0.43473    -0.43299    -0.43105    -0.42432
    -0.41369    -0.40789    -0.40223    -0.39583    -0.39030    -0.38598
    -0.37531    -0.37229    -0.36846    -0.36201    -0.35550    -0.34779
    -0.33755    -0.32805    -0.31649    -0.30915    -0.30597    -0.27230
    -0.21027    -0.13844    -0.13623    -0.10355    -0.09662    -0.09542
    -0.08634    -0.07135    -0.06111
 
  
  
    Unrestricted Spin Properties ...
    Sz*(Sz+1)      0.750
    <S**2> ...     0.759
  
  
  Peak memory usage:   5827 Mb
  
  end of program scf
   
 Time(scf)  user:     1380.2  user+sys:     1380.2  wallclock:      116.7
  
  start of program der1a
  
  Peak memory usage:   3832 Mb
  
  end of program der1a
   
 Time(der1a)  user:        6.6  user+sys:        6.6  wallclock:        1.6
  
  start of program rwr
  
  Peak memory usage:   3767 Mb
  
  end of program rwr
   
 Time(rwr)  user:       90.7  user+sys:       90.7  wallclock:       15.7
  
  start of program der1b
  
   
  forces (hartrees/bohr) : total     
   
 atom  label           x              y              z
 ---- --------   -------------  -------------  -------------
    1 C1         -3.544671E-02  -5.221803E-03  -1.857855E-02
    2 O2          9.711793E-03  -3.057613E-03  -5.071328E-03
    3 C3          1.928102E-02  -5.857196E-03   5.639042E-03
    4 C4          1.860321E-03   2.209827E-02   1.091907E-02
    5 C5          1.285624E-02   4.250872E-03  -1.417720E-02
    6 C6          1.549662E-02   2.320802E-02  -2.119942E-04
    7 C7         -1.390303E-02  -1.048264E-02  -1.818864E-02
    8 C8          8.170662E-03  -1.702533E-03   1.473476E-02
    9 N9          1.277817E-02  -2.054357E-02   1.981019E-02
   10 H10         5.480426E-03   6.364377E-03   1.880093E-04
   11 C11         8.846337E-03  -1.927537E-04   2.167377E-02
   12 C12        -4.536734E-04   3.614365E-02   1.621745E-02
   13 C13        -1.820261E-02  -2.140152E-02   1.044109E-02
   14 C14         9.652285E-03   2.209317E-03  -1.480113E-02
   15 N15        -3.026262E-02   1.262563E-02  -2.667987E-02
   16 C16         1.243354E-02   1.789882E-02  -3.187106E-02
   17 H17         1.450709E-02  -1.124140E-02   5.268354E-03
   18 C18         1.901558E-02  -1.433087E-02  -2.296200E-02
   19 C19         1.448731E-02   3.104791E-02   3.560582E-02
   20 H20        -5.924257E-02  -4.510110E-03   8.639829E-03
   21 C21         1.125650E-02   4.685383E-03  -1.227353E-03
   22 H22         1.768812E-02  -6.193275E-03  -1.210497E-02
   23 C23         6.886521E-03   1.529044E-02   1.304934E-02
   24 C24        -1.694422E-02   1.316397E-02  -1.302568E-02
   25 C25         3.274696E-02  -7.815650E-03   2.009987E-02
   26 H26         6.482410E-04  -3.233554E-03   4.710513E-05
   27 C27        -8.813455E-02  -3.398150E-02   1.915739E-02
   28 H28         2.354750E-02   3.456846E-03  -1.031368E-02
   29 C29         2.857780E-02  -1.440810E-03   1.039346E-02
   30 H30        -6.175945E-03   3.167705E-03  -8.266534E-03
   31 C31         2.999252E-02  -9.786077E-03   4.005798E-02
   32 O32        -3.674635E-03  -2.671708E-02  -5.681917E-02
   33 O33        -1.740219E-02   1.399916E-03   1.585431E-02
   34 C34         2.613675E-03  -4.259961E-03  -3.972241E-03
   35 O35         7.949608E-03   7.671010E-03   7.154895E-03
   36 C36        -1.601291E-02  -7.971775E-03   1.080571E-02
   37 O37         5.840046E-03  -1.667585E-02   2.498723E-03
   38 C38        -1.667226E-02   2.763266E-02  -3.845105E-04
   39 O39        -5.744950E-03  -3.064060E-02   2.314959E-02
   40 C40        -1.942584E-02   7.031008E-04   1.316340E-02
   41 C41        -1.004311E-03  -1.065118E-02  -3.745772E-04
   42 C42        -4.825029E-02   1.482872E-04   1.429599E-03
   43 C43         2.457301E-02  -4.869805E-02  -3.131858E-02
   44 C44        -3.816493E-02  -2.155793E-02   3.165136E-02
   45 C45        -5.986111E-03   2.691241E-02   1.893012E-02
   46 O46         1.067749E-02   3.161512E-03  -3.090743E-03
   47 C47        -2.373434E-02   3.059749E-02   1.660313E-02
   48 O48         1.146187E-02  -4.446569E-03   7.328329E-03
   49 C49         2.439349E-03   3.297843E-02  -7.483452E-03
   50 O50        -1.456222E-02  -1.411537E-02   5.908737E-03
   51 C51         8.003938E-02   1.119002E-03  -5.318269E-02
   52 H52         1.987003E-03  -1.268349E-04   3.180540E-04
   53 H53        -1.183486E-03  -4.042851E-04   1.804225E-03
   54 H54        -2.340299E-03   1.112082E-03   1.484067E-03
   55 H55        -4.054277E-03  -2.996749E-03   2.682568E-04
   56 H56         1.887162E-03   1.802638E-03  -2.728278E-03
   57 H57        -8.140772E-04   3.259905E-03   2.106068E-04
   58 H58         2.216264E-03  -1.919600E-02   1.645454E-03
   59 H59         2.846602E-02  -2.147128E-02   2.955180E-03
   60 H60        -3.978142E-03  -7.058858E-03  -9.851814E-03
   61 H61         4.723193E-03  -1.290775E-03  -1.097074E-03
   62 H62         1.127347E-02   5.253289E-03   4.545162E-03
   63 H63         1.999878E-02   1.476711E-02   4.001021E-03
   64 H64         1.035262E-02  -2.713156E-03  -1.125195E-02
   65 H65        -6.499640E-04   4.105419E-03  -1.618743E-02
   66 H66        -1.472582E-02   2.159831E-02  -1.284130E-02
   67 H67         1.625064E-03   3.066350E-03  -1.504418E-03
   68 H68        -2.692544E-02  -2.708380E-03   3.207702E-03
   69 H69        -1.798576E-02  -6.342862E-03   3.398918E-03
   70 H70        -1.322199E-02   8.751995E-04  -1.710890E-03
   71 H71         1.741263E-02  -4.954361E-03  -1.948359E-03
   72 H72         1.633936E-02   4.077209E-03   2.682091E-03
   73 H73         1.452827E-02   1.914162E-03  -6.969525E-03
   74 H74        -1.590592E-03   1.367111E-02  -2.147581E-03
   75 H75         5.614618E-06   2.593619E-03   9.549506E-03
   76 H76        -3.403920E-03   3.942849E-03   3.096433E-03
   77 H77        -1.395184E-02   5.102298E-03   7.505479E-03
   78 H78        -5.009613E-03   1.418308E-03   5.472416E-03
   79 H79         1.992060E-04  -1.182730E-02   1.378374E-03
   80 H80        -7.889271E-03   5.647232E-03  -3.670687E-03
   81 H81        -2.313150E-03   8.691558E-03   4.097180E-03
   82 H82         4.043120E-02  -2.717159E-02  -3.774115E-02
   83 H83        -3.168377E-02   8.531825E-03  -3.043734E-03
   84 H84         5.621315E-04   1.433184E-02   2.607226E-03
 -------------   -------------  -------------  -------------
     total        2.401695E-03  -1.292319E-03  -1.523772E-04
   
  Peak memory usage:   5752 Mb
  
  end of program der1b
   
 Time(der1b)  user:      224.6  user+sys:      224.6  wallclock:       16.3
  
  start of program geopt
  
 ----------------------------------------------------------------------------
  Geometry optimization step  1
  Total energy:     -2066.37177873796 hartrees
 ----------------------------------------------------------------------------
  detected            2  molecular fragments
  
  
  Level shifts adjusted to satisfy step-size constraints
   Step size:    0.3000431
   Cos(theta):   0.7398221
   Final level shift:  -2.0061379E+00
  
  gradient maximum:        7.9018E-01 .  (  4.5000E-04 )
  gradient rms:            1.0771E-01 .  (  3.0000E-04 )
  displacement maximum:    3.5845E-02 .  (  1.8000E-03 )
  displacement rms:        6.8060E-03 .  (  1.2000E-03 )
  
  predicted energy change:  -1.3517E-01
  step size:     0.11348
  trust radius:  0.30000
  
  molecular structure not yet converged...
  
  center of mass moved by:
     x:    -6.7011E-04     y:    -7.2148E-04     z:     1.0674E-02
  
  new geometry: 
                                   angstroms
  atom               x                 y                 z
  C1            1.1062624311      0.0990902571     -0.0876828355 
  O2            2.5289758481     -0.0079367622     -0.0548715629 
  C3            2.9732429865      0.3789356243      1.1851035623 
  C4            3.2565596624      1.7263592888      1.4055996366 
  C5            3.8050233466      2.1412884931      2.6184453464 
  C6            4.2116165223      1.1640715285      3.5423915409 
  C7            3.7726875929     -0.1573935266      3.3549827160 
  C8            3.1628455620     -0.5938697255      2.1702220369 
  N9            4.0878000436     -0.8471153839      4.5069646146 
  H10           3.7848112979     -1.7978661741      4.6947062260 
  C11           4.8557109674     -0.0475029213      5.3401487168 
  C12           5.0654257128      1.1948777687      4.7033582677 
  C13           5.7482457157      2.4294706554      5.4565578270 
  C14           6.3521349027      1.8846171943      6.9764966404 
  N15           5.7283579410      0.6775583863      7.7353575938 
  C16           5.1836637208     -0.4230841561      6.8133178125 
  H17           6.0028806131     -1.1183121052      6.6991279225 
  C18           4.0673391294     -1.2300689793      7.4426496940 
  C19           4.3571463314     -1.3806293575      8.9473455880 
  H20           3.4941479219     -1.9217686022      8.7003252190 
  C21           4.2740184327     -0.1527797173      9.8122877350 
  H22           4.6955043724     -0.2873298736     10.8206756867 
  C23           5.0523249934      0.9782492506      9.0839354958 
  C24           2.8227812383      0.1114716560     10.1227144749 
  C25           1.9755836289     -0.9542697950     10.7591968350 
  H26           2.0194196919     -1.0164267662     11.8468765305 
  C27           2.4940227271     -2.4540891857     10.1676233454 
  H28           2.0482662942     -2.4931190905      9.1510259714 
  C29           4.3579327557     -2.5562998705      9.9172944501 
  H30           4.7418273637     -2.3487065032     10.9235815580 
  C31           6.0356839738     -2.7384256691      9.0471442049 
  O32           6.1900125873     -3.1551581580      7.9383716360 
  O33           7.1804538740     -2.2166163316      9.7716104577 
  C34           8.6542744229     -2.3245297147      9.2462211142 
  O35           1.6276067881     -3.5029493443     10.7778339028 
  C36           0.1308005610     -3.3363141410     10.6931566026 
  O37           0.4362047601     -0.5704044692     10.5738706210 
  C38          -0.2825022772      0.6476653866     10.6140772215 
  O39          -1.3981787504      0.7743007931     11.1102461611 
  C40           0.1692325757      1.7706361149      9.7786763472 
  C41           0.6615621948      1.3605154313      8.6079111155 
  C42           1.5423449775      2.2244777389      8.0241806550 
  C43           1.6856496046      3.6077605374      8.2695146340 
  C44           0.7719920719      4.0723615004      9.1441885654 
  C45           0.0337545413      3.1567895459      9.9358185513 
  O46           0.6973191651      5.4196104214      9.1346069823 
  C47          -0.4209604497      5.9221057753      9.7929180185 
  O48           2.6744216217      4.3895886440      7.7171910074 
  C49           2.5706405818      5.7655150424      7.4009450532 
  O50           2.2912978051      1.3924588967      7.2864709875 
  C51           3.1188786275      2.2524709628      6.6787581643 
  H52           0.7714128554     -0.1886419182     -1.0866285966 
  H53           0.7832466136      1.1289096378      0.1016245802 
  H54           0.6529522346     -0.5810024080      0.6413002388 
  H55           3.0989749744      2.4543429893      0.6163813936 
  H56           4.0165920551      3.1866762856      2.8048298902 
  H57           2.9218473502     -1.6371479508      1.9822980597 
  H58           5.0195763168      3.2626469842      5.6123831500 
  H59           6.4066624263      3.0470640130      4.8306146098 
  H60           6.4054096597      2.7278684745      7.6949696877 
  H61           7.3768499834      1.5857495187      6.7659859038 
  H62           4.0217897602     -2.2389778410      6.9777339611 
  H63           3.0199269659     -0.8811113900      7.2617943841 
  H64           5.8252755143      1.2714912134      9.8081862780 
  H65           4.4045480313      1.8627213678      9.0948483929 
  H66           2.4580647713      0.0778273264      9.1238007679 
  H67           2.6466369853      1.0800596292     10.5899957508 
  H68           9.3667007724     -1.9980811292     10.0382845530 
  H69           8.8913414998     -1.6857051058      8.3739190375 
  H70           8.9306461923     -3.3645273871      9.0221117966 
  H71          -0.3380132304     -4.2256361073     11.1434320079 
  H72          -0.3087331473     -3.2666801099      9.6772822843 
  H73          -0.2728953426     -2.5149981144     11.3056722766 
  H74           0.6825643455      0.3053976386      8.3277328449 
  H75          -0.6832694497      3.5194415583     10.6495429752 
  H76          -0.4394925262      6.9875460896      9.5841520477 
  H77          -0.2626480083      5.7409270205     10.8539630704 
  H78          -1.3279531475      5.4520702319      9.4032677673 
  H79           3.3734652656      6.0451038954      6.7012240212 
  H80           2.7248573313      6.3584143877      8.3034328472 
  H81           1.6242030844      5.9575131985      6.8980137917 
  H82           3.8540111752      1.5846671365      6.4835444704 
  H83           3.7803792116      2.8657675722      7.2985785760 
  H84           2.6646306225      2.6504287540      5.7835362741 
   
  nuclear repulsion energy.......    5815.798650969 hartrees
  -------------------------------------------------
 /  end of geometry optimization iteration   1   /
 -------------------------------------------------
   
  Peak memory usage:   4740 Mb
  
  end of program geopt
   
 Time(geopt)  user:       23.1  user+sys:       23.1  wallclock:        2.1
  
  start of program onee
  
  smallest eigenvalue of S:    5.155E-04
  number of canonical orbitals.....          476
  Peak memory usage:   3817 Mb
  
  end of program onee
   
 Time(onee)  user:        6.5  user+sys:        6.5  wallclock:        1.4
  
  start of program probe
  
  Peak memory usage:   3734 Mb
  
  end of program probe
   
 Time(probe)  user:        6.1  user+sys:        6.1  wallclock:        1.6
  
  start of program grid
  
   grid     grid set  grid #  grid sym
  ------    --------  ------  --------
  coarse        0        0        1
  medium        2        1        1
  fine          0        0        1
  ultrafine     4        2        1
  charge       -1        3        1
  gradient      4        2        1
  density       0        0        1
  DFT-fine    -11        4        1
  DFT-med.    -10        5        1
  DFT-grad    -12        6        1
  DFT-der2      0        0        1
  DFT-cphf      0        0        1
  LMP2-enrg     4        2        1
  LMP2-grad     2        1        1
  DFT-cphf2     0        0        1
  PBF-dens      0        0        1
  plotting      0        0        1
  Rel-grad    -17        0        1
  
  number of gridpoints: 
     atom        C1       O2       C3       C4       C5       C6       C7
  grid # 1       76      117       98       96       96       99      100
  grid # 2      269      452      354      333      336      352      357
  grid # 3        6      653      137      172      169      141      217
  grid # 4     4304     4304     4304     4304     4304     4304     4304
  grid # 5     1192     1192     1192     1192     1192     1192     1192
  grid # 6     5226     5226     5226     5226     5226     5226     5226
   
  number of gridpoints: 
     atom        C8       N9      H10      C11      C12      C13      C14
  grid # 1       96       98      113       96      100       89       87
  grid # 2      335      333      435      362      368      306      303
  grid # 3      177      170      813       79      159        6        6
  grid # 4     4304     4304     4304     4304     4304     4304     4304
  grid # 5     1192     1192     1192     1192     1192     1192     1192
  grid # 6     5226     5226     5226     5226     5226     5226     5226
   
  number of gridpoints: 
     atom       N15      C16      H17      C18      C19      H20      C21
  grid # 1      106       90      105       86       91       90       92
  grid # 2      401      309      418      287      320      351      314
  grid # 3       66        6      437        6        7       37        7
  grid # 4     4304     4304     4304     4304     4304     4304     4304
  grid # 5     1192     1192     1192     1192     1192     1192     1192
  grid # 6     5226     5226     5226     5226     5226     5226     5226
   
  number of gridpoints: 
     atom       H22      C23      C24      C25      H26      C27      H28
  grid # 1      107       91       84       93      110       94      101
  grid # 2      417      299      284      331      436      345      407
  grid # 3      503        7        6        6      829       14      389
  grid # 4     4304     4304     4304     4304     4304     4304     4304
  grid # 5     1192     1192     1192     1192     1192     1192     1192
  grid # 6     5226     5226     5226     5226     5226     5226     5226
   
  number of gridpoints: 
     atom       C29      H30      C31      O32      O33      C34      O35
  grid # 1       96      110      100      119      116       79      118
  grid # 2      346      425      371      485      463      278      469
  grid # 3      172      741      148      801      465        6      681
  grid # 4     4304     4304     4304     4304     4304     4304     4304
  grid # 5     1192     1192     1192     1192     1192     1192     1192
  grid # 6     5226     5226     5226     5226     5226     5226     5226
   
  number of gridpoints: 
     atom       C36      O37      C38      O39      C40      C41      C42
  grid # 1       79      114       98      123       97       92       96
  grid # 2      273      441      360      513      349      329      345
  grid # 3        6      129      130     1382       77      179       96
  grid # 4     4304     4304     4304     4304     4304     4304     4304
  grid # 5     1192     1192     1192     1192     1192     1192     1192
  grid # 6     5226     5226     5226     5226     5226     5226     5226
   
  number of gridpoints: 
     atom       C43      C44      C45      O46      C47      O48      C49
  grid # 1       96       94       94      113       78      113       76
  grid # 2      355      342      334      427      251      422      258
  grid # 3      107      153      145      163        6      149        6
  grid # 4     4304     4304     4304     4304     4304     4304     4304
  grid # 5     1192     1192     1192     1192     1192     1192     1192
  grid # 6     5226     5226     5226     5226     5226     5226     5226
   
  number of gridpoints: 
     atom       O50      C51      H52      H53      H54      H55      H56
  grid # 1      110       75      113      109      110      115      114
  grid # 2      419      248      449      438      439      446      446
  grid # 3      140        6     1301      973     1002     1089      946
  grid # 4     4304     4304     4304     4304     4304     4304     4304
  grid # 5     1192     1192     1192     1192     1192     1192     1192
  grid # 6     5226     5226     5226     5226     5226     5226     5226
   
  number of gridpoints: 
     atom       H57      H58      H59      H60      H61      H62      H63
  grid # 1      115      103      111      110      110      102      101
  grid # 2      446      413      444      432      442      413      407
  grid # 3     1071      295     1026      712      872      414      241
  grid # 4     4304     4304     4304     4304     4304     4304     4304
  grid # 5     1192     1192     1192     1192     1192     1192     1192
  grid # 6     5226     5226     5226     5226     5226     5226     5226
   
  number of gridpoints: 
     atom       H64      H65      H66      H67      H68      H69      H70
  grid # 1      108      103       93      107      113      111      111
  grid # 2      426      405      380      422      450      442      446
  grid # 3      773      266       16      517     1277      919     1147
  grid # 4     4304     4304     4304     4304     4304     4304     4304
  grid # 5     1192     1192     1192     1192     1192     1192     1192
  grid # 6     5226     5226     5226     5226     5226     5226     5226
   
  number of gridpoints: 
     atom       H71      H72      H73      H74      H75      H76      H77
  grid # 1      109      110      105      105      111      111      109
  grid # 2      445      440      425      418      428      445      435
  grid # 3     1252      979      628      569      696     1174      978
  grid # 4     4304     4304     4304     4304     4304     4304     4304
  grid # 5     1192     1192     1192     1192     1192     1192     1192
  grid # 6     5226     5226     5226     5226     5226     5226     5226
   
  number of gridpoints: 
     atom       H78      H79      H80      H81      H82      H83      H84
  grid # 1      110      112      110      110       93       97      106
  grid # 2      434      443      436      438      376      384      426
  grid # 3      996     1015      947      913       46       90      569
  grid # 4     4304     4304     4304     4304     4304     4304     4304
  grid # 5     1192     1192     1192     1192     1192     1192     1192
  grid # 6     5226     5226     5226     5226     5226     5226     5226
   
  number of gridpoints: 
     atom     total
  grid # 1     8544
  grid # 2    32476
  grid # 3    36822
  grid # 4   361536
  grid # 5   100128
  grid # 6   438984
   
  Peak memory usage:   3772 Mb
  
  end of program grid
   
 Time(grid)  user:       89.5  user+sys:       89.5  wallclock:        7.5
  
  start of program rwr
  
  Peak memory usage:   3765 Mb
  
  end of program rwr
   
 Time(rwr)  user:      109.8  user+sys:      109.8  wallclock:       12.4
  
  start of program scf
  
 Energy computed with NOPS off.
  
       i  u  d  i  g                   
       t  p  i  c  r                                 RMS    maximum
       e  d  i  u  i                       energy  density   DIIS  
       r  t  s  t  d       total energy    change  change    error 
  
etot    1  N  N  2  U   -2066.40379795364           9.9E-04  1.3E-02
etot    2  Y  Y  6  M   -2066.48638580243  8.3E-02  4.2E-04  2.9E-03
etot    3  N  Y  2  U   -2066.48294963682 -3.4E-03  3.2E-04  8.0E-03
etot    4  Y  Y  6  M   -2066.49025078692  7.3E-03  1.2E-04  2.5E-03
etot    5  N  Y  2  U   -2066.49061784276  3.7E-04  4.9E-05  1.9E-03
etot    6  N  Y  2  U   -2066.49072820029  1.1E-04  2.9E-05  8.0E-04
etot    7  N  Y  2  U   -2066.49074487730  1.7E-05  9.5E-06  5.7E-04
etot    8  N  Y  2  U   -2066.49075516932  1.0E-05  6.4E-06  1.9E-04
etot    9  N  Y  2  U   -2066.49075762446  2.5E-06  4.0E-06  1.3E-04
etot   10  N  N  2  U   -2066.49075860260  9.8E-07  0.0E+00  0.0E+00
  
  
 Energy components, in hartrees:
   (A)  Nuclear repulsion............    5815.79865096850
   (E)  Total one-electron terms.....  -14362.02320884160
   (I)  Total two-electron terms.....    6479.73379927050
   (L)  Electronic energy............   -7882.28940957111  (E+I)
   (N)  Total energy.................   -2066.49075860260  (A+L)
   (O)  Gas phase energy.............   -2066.49075860260
  
                                 Total             Coulomb       Exchange+Corr.
 Total two-electron terms    6479.73379927050    6764.58319386394    -284.84939459345
   Hamiltonian  1........    3291.59667256377    3392.82475576369    -101.22808319991
   Hamiltonian  2........    3270.95628245540    3371.75843810025    -100.80215564485
  
 SCFE: SCF energy: UDFT(b3lyp)     -2066.49075860260 hartrees   iterations:  10
  
 
 Alpha HOMO energy:    -0.30441
 Alpha LUMO energy:    -0.20156
 
  Alpha Orbital energies (hartrees): 
   -19.28965   -19.28322   -19.27120   -19.27104   -19.26370   -19.26250
   -19.25720   -19.23648   -19.23367   -14.51221   -14.49269   -10.46412
   -10.41828   -10.38647   -10.38079   -10.37614   -10.37192   -10.37186
   -10.35776   -10.35513   -10.35382   -10.35151   -10.35100   -10.34784
   -10.34726   -10.34453   -10.34027   -10.33945   -10.33441   -10.31981
   -10.31905   -10.31865   -10.31687   -10.31643   -10.31091   -10.31037
   -10.30891   -10.29927   -10.29756   -10.29339   -10.29288   -10.29051
   -10.28678   -10.27250    -1.23766    -1.21530    -1.19755    -1.17192
    -1.16791    -1.15788    -1.12611    -1.10324    -1.10107    -1.08497
    -1.04637    -1.00570    -0.98295    -0.97193    -0.93796    -0.92788
    -0.89908    -0.89558    -0.87448    -0.87202    -0.86434    -0.85447
    -0.83967    -0.83019    -0.81560    -0.80682    -0.80248    -0.79439
    -0.78114    -0.77883    -0.76792    -0.75371    -0.74212    -0.73166
    -0.72458    -0.71608    -0.70910    -0.70427    -0.69323    -0.67724
    -0.66570    -0.66219    -0.65615    -0.64143    -0.63316    -0.63145
    -0.62405    -0.61859    -0.61512    -0.61128    -0.60187    -0.59757
    -0.59566    -0.58780    -0.58212    -0.58164    -0.57920    -0.57718
    -0.57302    -0.56567    -0.56021    -0.55807    -0.55701    -0.55513
    -0.55341    -0.55218    -0.54894    -0.54607    -0.54187    -0.53893
    -0.53335    -0.53185    -0.52701    -0.52651    -0.52321    -0.52077
    -0.51833    -0.51589    -0.51293    -0.51236    -0.50794    -0.50354
    -0.49895    -0.49289    -0.48949    -0.48726    -0.48184    -0.47883
    -0.47632    -0.46952    -0.46456    -0.46171    -0.45833    -0.45508
    -0.45332    -0.44772    -0.43625    -0.43276    -0.42751    -0.42279
    -0.41467    -0.40848    -0.40638    -0.40001    -0.39541    -0.38604
    -0.37740    -0.37403    -0.37128    -0.36795    -0.35601    -0.35149
    -0.34538    -0.33840    -0.32687    -0.31929    -0.31311    -0.30441
    -0.20156    -0.14512    -0.13508    -0.10713    -0.09715    -0.09495
    -0.08616    -0.07657    -0.05979    -0.05407
 
 
 Beta HOMO energy:    -0.30232
 Beta LUMO energy:    -0.27663
 
  Beta Orbital energies (hartrees): 
   -19.28978   -19.28297   -19.27115   -19.27106   -19.26297   -19.26231
   -19.25684   -19.23628   -19.23349   -14.51199   -14.48883   -10.46461
   -10.41827   -10.38638   -10.38066   -10.37446   -10.37173   -10.37057
   -10.35618   -10.35523   -10.35361   -10.35090   -10.35071   -10.34786
   -10.34732   -10.34434   -10.34024   -10.33658   -10.33442   -10.31963
   -10.31863   -10.31755   -10.31669   -10.31643   -10.31095   -10.30940
   -10.30894   -10.29866   -10.29756   -10.29408   -10.29289   -10.29024
   -10.28654   -10.27238    -1.23693    -1.21446    -1.19755    -1.17169
    -1.16672    -1.15760    -1.12388    -1.10329    -1.10082    -1.08455
    -1.04203    -1.00156    -0.98254    -0.97023    -0.93577    -0.92400
    -0.89884    -0.89355    -0.87350    -0.87100    -0.86317    -0.85197
    -0.83774    -0.82986    -0.81522    -0.80632    -0.80150    -0.79353
    -0.78035    -0.77733    -0.76723    -0.75227    -0.73998    -0.73089
    -0.72315    -0.71509    -0.70844    -0.70252    -0.69077    -0.67525
    -0.66504    -0.66024    -0.65587    -0.64061    -0.63192    -0.63006
    -0.62326    -0.61819    -0.61406    -0.61005    -0.60134    -0.59614
    -0.59423    -0.58631    -0.58122    -0.58070    -0.57769    -0.57638
    -0.57169    -0.56349    -0.55928    -0.55688    -0.55565    -0.55388
    -0.55273    -0.55133    -0.54706    -0.54387    -0.53946    -0.53794
    -0.53263    -0.53038    -0.52615    -0.52592    -0.52173    -0.51994
    -0.51759    -0.51426    -0.51200    -0.51169    -0.50682    -0.50200
    -0.49731    -0.49209    -0.48849    -0.48653    -0.48080    -0.47770
    -0.47517    -0.46859    -0.46340    -0.46003    -0.45657    -0.45426
    -0.45016    -0.44654    -0.43536    -0.42970    -0.42715    -0.42147
    -0.41371    -0.40774    -0.40556    -0.39872    -0.38668    -0.38559
    -0.37674    -0.37083    -0.36856    -0.36680    -0.35479    -0.34423
    -0.33895    -0.32497    -0.31329    -0.30989    -0.30232    -0.27663
    -0.19873    -0.13475    -0.13429    -0.10570    -0.09464    -0.09208
    -0.08519    -0.06667    -0.05890
 
  
  
    Unrestricted Spin Properties ...
    Sz*(Sz+1)      0.750
    <S**2> ...     0.757
  
  
  Peak memory usage:   5826 Mb
  
  end of program scf
   
 Time(scf)  user:      738.4  user+sys:      738.4  wallclock:       60.3
  
  start of program der1a
  
  Peak memory usage:   3834 Mb
  
  end of program der1a
   
 Time(der1a)  user:        6.1  user+sys:        6.1  wallclock:        1.2
  
  start of program rwr
  
  Peak memory usage:   3766 Mb
  
  end of program rwr
   
 Time(rwr)  user:       86.7  user+sys:       86.7  wallclock:       17.0
  
  start of program der1b
  
   
  forces (hartrees/bohr) : total     
   
 atom  label           x              y              z
 ---- --------   -------------  -------------  -------------
    1 C1         -3.292572E-02  -3.112363E-03  -1.801428E-02
    2 O2          8.493025E-03  -3.242416E-03  -3.787413E-03
    3 C3          1.705709E-02  -6.666975E-03   5.035376E-03
    4 C4          2.872353E-03   2.077702E-02   1.019942E-02
    5 C5          1.317351E-02   2.670130E-03  -1.391998E-02
    6 C6          1.653519E-02   1.999016E-02   3.660816E-04
    7 C7         -1.348124E-02  -9.906874E-03  -1.577613E-02
    8 C8          7.158423E-03  -1.690110E-03   1.379618E-02
    9 N9          9.170284E-03  -2.058717E-02   1.714412E-02
   10 H10         5.702372E-03   5.590988E-03  -1.090350E-04
   11 C11         6.186132E-03   7.049567E-03   2.511414E-02
   12 C12        -3.044135E-03   3.485810E-02   2.407149E-02
   13 C13        -3.070638E-02  -2.485366E-02   1.747506E-02
   14 C14        -9.930068E-04   2.414539E-03  -1.345847E-02
   15 N15        -3.295956E-02   1.635169E-02  -2.850919E-02
   16 C16         1.192719E-02   2.424647E-02  -3.018988E-02
   17 H17         1.296695E-02  -1.235595E-02   4.705068E-03
   18 C18         2.011404E-02  -1.578406E-02  -2.401850E-02
   19 C19         2.794410E-03   2.628381E-02   3.425096E-02
   20 H20        -6.107644E-02   1.295829E-03   8.917048E-03
   21 C21         1.455144E-02   4.365389E-03  -1.613863E-04
   22 H22         1.809402E-02  -6.986179E-03  -1.193689E-02
   23 C23         5.439410E-03   1.582836E-02   1.100812E-02
   24 C24        -1.847717E-02   1.375170E-02  -1.636464E-02
   25 C25         2.868500E-02  -8.749418E-03   1.871953E-02
   26 H26         2.652032E-03  -1.992341E-03   3.860781E-04
   27 C27        -7.834684E-02  -2.928000E-02   4.451197E-03
   28 H28         1.740783E-02   4.369708E-03  -8.710962E-03
   29 C29         2.881004E-02  -6.468189E-03   2.300894E-02
   30 H30         6.564126E-04   4.506995E-03  -9.477624E-03
   31 C31         2.761466E-02  -1.457784E-02   3.955642E-02
   32 O32        -7.121996E-03  -2.196303E-02  -4.802883E-02
   33 O33        -1.863406E-02   1.122823E-03   1.144928E-02
   34 C34         1.784666E-03  -4.078265E-03  -3.424448E-03
   35 O35         1.262375E-02   7.754123E-03   7.466601E-03
   36 C36        -1.473281E-02  -7.159571E-03   1.142225E-02
   37 O37         1.032151E-02  -1.510833E-02  -3.208320E-04
   38 C38        -1.806297E-02   2.594843E-02  -1.779668E-03
   39 O39        -1.490181E-03  -2.890343E-02   2.314742E-02
   40 C40        -1.593703E-02  -3.679673E-03   1.152135E-02
   41 C41         4.163000E-03  -9.599308E-03   4.155165E-03
   42 C42        -3.932093E-02  -7.278765E-03   2.020219E-03
   43 C43         2.346215E-02  -4.060020E-02  -3.073602E-02
   44 C44        -3.170501E-02  -2.219665E-02   3.036679E-02
   45 C45        -4.990754E-03   2.433186E-02   1.729211E-02
   46 O46         9.538327E-03   2.726909E-03  -3.890213E-03
   47 C47        -2.140773E-02   2.610387E-02   1.704342E-02
   48 O48         1.243775E-02  -1.295177E-02   3.876089E-03
   49 C49         2.820349E-04   3.048329E-02  -7.465546E-03
   50 O50        -1.422168E-02  -3.564121E-03   1.001835E-02
   51 C51         9.075023E-02   2.178784E-03  -5.978233E-02
   52 H52         2.148178E-03  -2.628930E-04   3.209153E-04
   53 H53        -9.792327E-04  -2.280138E-04   1.727134E-03
   54 H54        -1.994906E-03   1.193265E-03   1.388165E-03
   55 H55        -4.106656E-03  -2.617971E-03   2.003250E-04
   56 H56         1.965250E-03   1.453812E-03  -2.492722E-03
   57 H57        -5.954431E-04   3.103052E-03   1.549709E-05
   58 H58        -5.626247E-03  -1.842871E-02   5.856241E-03
   59 H59         2.397071E-02  -2.173787E-02   4.407941E-03
   60 H60        -4.329897E-03  -6.814661E-03  -9.225824E-03
   61 H61         4.446043E-03  -1.608030E-03  -1.730155E-03
   62 H62         1.028798E-02   5.085581E-03   3.587544E-03
   63 H63         1.881025E-02   1.436234E-02   4.575625E-03
   64 H64         9.462601E-03  -2.018820E-03  -1.116451E-02
   65 H65        -2.392382E-03   3.782867E-03  -1.649084E-02
   66 H66        -1.733821E-02   2.170161E-02  -1.340573E-02
   67 H67         8.586709E-04   3.067572E-03  -1.495574E-03
   68 H68        -2.567763E-02  -1.742170E-04   2.874006E-03
   69 H69        -1.736218E-02  -4.417258E-03   3.802699E-03
   70 H70        -1.233168E-02   2.153749E-03  -1.466623E-03
   71 H71         1.672771E-02  -4.967743E-03  -3.124036E-03
   72 H72         1.581783E-02   3.908812E-03   1.647243E-03
   73 H73         1.327733E-02   7.269390E-04  -7.972418E-03
   74 H74        -1.369790E-03   1.198207E-02  -1.189760E-03
   75 H75         9.921150E-04   2.446398E-03   9.064397E-03
   76 H76        -2.724255E-03   3.332296E-03   2.867223E-03
   77 H77        -1.259148E-02   3.905689E-03   7.896822E-03
   78 H78        -4.173209E-03   8.611648E-04   5.315185E-03
   79 H79         6.832509E-04  -1.159418E-02   1.346957E-03
   80 H80        -8.034969E-03   4.633309E-03  -2.717122E-03
   81 H81        -2.463609E-03   7.891271E-03   4.060433E-03
   82 H82         4.505041E-02  -3.271554E-02  -4.629526E-02
   83 H83        -2.709361E-02   1.209251E-02   1.755579E-03
   84 H84         4.946799E-03   1.664620E-02  -2.280281E-03
 -------------   -------------  -------------  -------------
     total        2.049353E-03  -1.591512E-03  -2.188816E-04
   
  Peak memory usage:   5752 Mb
  
  end of program der1b
   
 Time(der1b)  user:      214.9  user+sys:      214.9  wallclock:       15.2
  
  start of program geopt
  
 ----------------------------------------------------------------------------
  Geometry optimization step  2
  Total energy:     -2066.49075860260 hartrees
 ----------------------------------------------------------------------------
  detected            2  molecular fragments
  
  
  Level shifts adjusted to satisfy step-size constraints
   Step size:    0.3002089
   Cos(theta):   0.7421034
   Final level shift:  -1.7970818E+00
  
  energy change:          -1.1898E-01 .  (  5.0000E-05 )
  gradient maximum:        4.3621E-01 .  (  4.5000E-04 )
  gradient rms:            5.8911E-02 .  (  3.0000E-04 )
  displacement maximum:    6.4883E-02 .  (  1.8000E-03 )
  displacement rms:        1.0809E-02 .  (  1.2000E-03 )
  
  predicted energy change:  -1.2112E-01
  step size:     0.18022
  trust radius:  0.30000
  
  molecular structure not yet converged...
  
  center of mass moved by:
     x:    -2.4367E-03     y:     8.1962E-04     z:     1.7581E-03
  
  new geometry: 
                                   angstroms
  atom               x                 y                 z
  C1            1.2401445598      0.1081734349     -0.2279226018 
  O2            2.6602114463     -0.0652509433     -0.1554608533 
  C3            3.1107237575      0.3336055438      1.0829711271 
  C4            3.4616234353      1.6727087075      1.2724169696 
  C5            4.0131507726      2.0915354265      2.4822258995 
  C6            4.3513026913      1.1193880595      3.4408027155 
  C7            3.8473564385     -0.1855859736      3.2800202311 
  C8            3.2353050650     -0.6209828933      2.0976240742 
  N9            4.1049914886     -0.8611674683      4.4581560251 
  H10           3.7517032495     -1.7892134420      4.6647326570 
  C11           4.8946133361     -0.0779811892      5.2852517309 
  C12           5.1735670442      1.1360491974      4.6231205226 
  C13           5.9057902112      2.3428274590      5.3544300025 
  C14           6.4767498229      1.8081831076      6.8795095438 
  N15           5.7920778361      0.6540326223      7.6546850525 
  C16           5.1946332229     -0.4393136427      6.7631434440 
  H17           5.9885782404     -1.1708440564      6.6727147350 
  C18           4.0409890457     -1.1631492363      7.4281174818 
  C19           4.3502542719     -1.2970265455      8.9334488759 
  H20           3.4335137862     -1.7759290776      8.7220872450 
  C21           4.3290379940     -0.0486169922      9.7643203075 
  H22           4.7712564446     -0.1797873563     10.7637497025 
  C23           5.1473966924      1.0295143362      8.9966975801 
  C24           2.8830857725      0.2233203004     10.1033003754 
  C25           2.0951688113     -0.8605691725     10.7963446936 
  H26           2.1826756030     -0.8982493612     11.8826399313 
  C27           2.5980915425     -2.3725125293     10.2202159141 
  H28           2.1101487386     -2.4408066436      9.2246349385 
  C29           4.2650327672     -2.4379361727      9.9529232659 
  H30           4.6961818798     -2.2271360004     10.9379517450 
  C31           5.8699551639     -2.8820814333      9.0578172718 
  O32           5.9252899358     -3.3724768765      7.9622655069 
  O33           7.0653877365     -2.4702637633      9.7529690256 
  C34           8.4971614795     -2.7864834500      9.2201821857 
  O35           1.8219116729     -3.4323960374     10.9172221860 
  C36           0.3226914804     -3.3261734229     10.9438249323 
  O37           0.5407556817     -0.5506474039     10.6514103626 
  C38          -0.2277867965      0.6340918738     10.6898001640 
  O39          -1.3284805243      0.6990130915     11.2319580003 
  C40           0.1564180563      1.7686597230      9.8279164845 
  C41           0.6497529686      1.4096917503      8.6272783030 
  C42           1.4723006526      2.3367519250      8.0280381652 
  C43           1.5258229076      3.7214627978      8.3156323663 
  C44           0.6015924084      4.1068483781      9.2391412046 
  C45          -0.0593814972      3.1380234758     10.0290250486 
  O46           0.4265073647      5.4497182231      9.2899456211 
  C47          -0.7070552711      5.8588035390     10.0042782247 
  O48           2.4438268414      4.5887386648      7.7648884343 
  C49           2.2367173402      5.9674901460      7.4922746907 
  O50           2.2596762474      1.5614642633      7.2362571166 
  C51           3.0712620758      2.4353095103      6.5814795309 
  H52           0.9176258506     -0.1931297147     -1.2267643349 
  H53           0.9615893575      1.1569477750     -0.0752033985 
  H54           0.7363033831     -0.5269451863      0.5086637043 
  H55           3.3489780742      2.3852063093      0.4619412540 
  H56           4.2772349977      3.1294893266      2.6425596170 
  H57           2.9400917610     -1.6539608080      1.9343696239 
  H58           5.2216915598      3.2198023422      5.4545985600 
  H59           6.6338874814      2.8825297537      4.7338513661 
  H60           6.5633029950      2.6638220149      7.5769459908 
  H61           7.4886148807      1.4597122233      6.6791429515 
  H62           3.9338589484     -2.1777337249      6.9889760252 
  H63           3.0204034774     -0.7464201969      7.2504798520 
  H64           5.9489396820      1.2929655394      9.7007435928 
  H65           4.5535647474      1.9518823373      8.9761947035 
  H66           2.4852841431      0.1792419244      9.1141983947 
  H67           2.7187529377      1.1989980445     10.5608446721 
  H68           9.2456629587     -2.5119383592      9.9951655846 
  H69           8.7870709572     -2.2227406145      8.3146293879 
  H70           8.6289881364     -3.8624478277      9.0429877173 
  H71          -0.0634013147     -4.2245135496     11.4495490846 
  H72          -0.1858554373     -3.2966890622      9.9600597786 
  H73          -0.0591973920     -2.5020521084     11.5639313570 
  H74           0.7249738549      0.3660716016      8.3213663054 
  H75          -0.7732641847      3.4364887964     10.7762882370 
  H76          -0.8020399740      6.9278350086      9.8363822909 
  H77          -0.5121571148      5.6545151911     11.0558411272 
  H78          -1.5967442664      5.3455585472      9.6290022693 
  H79           3.0036882409      6.3150914561      6.7837652758 
  H80           2.3666206962      6.5464052433      8.4074192849 
  H81           1.2662904890      6.1123223889      7.0195890329 
  H82           3.8191934277      1.7734066141      6.3587411743 
  H83           3.7352214260      3.0691627383      7.1763618526 
  H84           2.5900673138      2.8312656976      5.6980465315 
   
  nuclear repulsion energy.......    5759.571479728 hartrees
  -------------------------------------------------
 /  end of geometry optimization iteration   2   /
 -------------------------------------------------
   
  Peak memory usage:   4734 Mb
  
  end of program geopt
   
 Time(geopt)  user:       23.3  user+sys:       23.3  wallclock:        1.8
  
  start of program onee
  
  smallest eigenvalue of S:    5.136E-04
  number of canonical orbitals.....          476
  Peak memory usage:   3816 Mb
  
  end of program onee
   
 Time(onee)  user:        4.9  user+sys:        4.9  wallclock:        1.0
  
  start of program probe
  
  Peak memory usage:   3733 Mb
  
  end of program probe
   
 Time(probe)  user:        5.9  user+sys:        5.9  wallclock:        1.5
  
  start of program grid
  
   grid     grid set  grid #  grid sym
  ------    --------  ------  --------
  coarse        0        0        1
  medium        2        1        1
  fine          0        0        1
  ultrafine     4        2        1
  charge       -1        3        1
  gradient      4        2        1
  density       0        0        1
  DFT-fine    -11        4        1
  DFT-med.    -10        5        1
  DFT-grad    -12        6        1
  DFT-der2      0        0        1
  DFT-cphf      0        0        1
  LMP2-enrg     4        2        1
  LMP2-grad     2        1        1
  DFT-cphf2     0        0        1
  PBF-dens      0        0        1
  plotting      0        0        1
  Rel-grad    -17        0        1
  
  number of gridpoints: 
     atom        C1       O2       C3       C4       C5       C6       C7
  grid # 1       77      117       99       96       96       99       99
  grid # 2      268      454      357      332      336      358      355
  grid # 3        6      653      142      175      170      148      218
  grid # 4     4304     4304     4304     4304     4304     4304     4304
  grid # 5     1192     1192     1192     1192     1192     1192     1192
  grid # 6     5226     5226     5226     5226     5226     5226     5226
   
  number of gridpoints: 
     atom        C8       N9      H10      C11      C12      C13      C14
  grid # 1       96       98      114       96       98       86       87
  grid # 2      335      334      439      360      369      306      303
  grid # 3      177      178      813       76      150        9        6
  grid # 4     4304     4304     4304     4304     4304     4304     4304
  grid # 5     1192     1192     1192     1192     1192     1192     1192
  grid # 6     5226     5226     5226     5226     5226     5226     5226
   
  number of gridpoints: 
     atom       N15      C16      H17      C18      C19      H20      C21
  grid # 1      104       89      104       86       91       92       92
  grid # 2      405      309      421      289      321      347      316
  grid # 3       71        6      461        6       10       27        7
  grid # 4     4304     4304     4304     4304     4304     4304     4304
  grid # 5     1192     1192     1192     1192     1192     1192     1192
  grid # 6     5226     5226     5226     5226     5226     5226     5226
   
  number of gridpoints: 
     atom       H22      C23      C24      C25      H26      C27      H28
  grid # 1      105       90       84       93      110       92      103
  grid # 2      417      298      286      330      436      334      408
  grid # 3      508        8        6        6      802        7      403
  grid # 4     4304     4304     4304     4304     4304     4304     4304
  grid # 5     1192     1192     1192     1192     1192     1192     1192
  grid # 6     5226     5226     5226     5226     5226     5226     5226
   
  number of gridpoints: 
     atom       C29      H30      C31      O32      O33      C34      O35
  grid # 1       94      109      101      121      116       79      119
  grid # 2      339      424      369      484      461      277      467
  grid # 3      109      676      145      831      468        6      660
  grid # 4     4304     4304     4304     4304     4304     4304     4304
  grid # 5     1192     1192     1192     1192     1192     1192     1192
  grid # 6     5226     5226     5226     5226     5226     5226     5226
   
  number of gridpoints: 
     atom       C36      O37      C38      O39      C40      C41      C42
  grid # 1       79      115       98      123       97       92       95
  grid # 2      273      442      360      510      349      331      343
  grid # 3        6      132      132     1363       76      180      108
  grid # 4     4304     4304     4304     4304     4304     4304     4304
  grid # 5     1192     1192     1192     1192     1192     1192     1192
  grid # 6     5226     5226     5226     5226     5226     5226     5226
   
  number of gridpoints: 
     atom       C43      C44      C45      O46      C47      O48      C49
  grid # 1       97       95       94      114       78      115       76
  grid # 2      355      354      332      429      253      427      257
  grid # 3      120      160      145      171        6      181        6
  grid # 4     4304     4304     4304     4304     4304     4304     4304
  grid # 5     1192     1192     1192     1192     1192     1192     1192
  grid # 6     5226     5226     5226     5226     5226     5226     5226
   
  number of gridpoints: 
     atom       O50      C51      H52      H53      H54      H55      H56
  grid # 1      110       75      113      109      110      115      115
  grid # 2      422      248      449      439      439      446      446
  grid # 3      150        6     1300      974     1003     1091      970
  grid # 4     4304     4304     4304     4304     4304     4304     4304
  grid # 5     1192     1192     1192     1192     1192     1192     1192
  grid # 6     5226     5226     5226     5226     5226     5226     5226
   
  number of gridpoints: 
     atom       H57      H58      H59      H60      H61      H62      H63
  grid # 1      115      104      112      110      110      104      100
  grid # 2      445      418      443      432      442      412      408
  grid # 3     1071      372     1021      729      884      395      248
  grid # 4     4304     4304     4304     4304     4304     4304     4304
  grid # 5     1192     1192     1192     1192     1192     1192     1192
  grid # 6     5226     5226     5226     5226     5226     5226     5226
   
  number of gridpoints: 
     atom       H64      H65      H66      H67      H68      H69      H70
  grid # 1      108      104       93      107      113      112      112
  grid # 2      428      407      382      425      452      443      446
  grid # 3      790      297       16      540     1277      961     1141
  grid # 4     4304     4304     4304     4304     4304     4304     4304
  grid # 5     1192     1192     1192     1192     1192     1192     1192
  grid # 6     5226     5226     5226     5226     5226     5226     5226
   
  number of gridpoints: 
     atom       H71      H72      H73      H74      H75      H76      H77
  grid # 1      110      111      106      106      111      112      109
  grid # 2      446      438      426      418      425      446      435
  grid # 3     1259      984      635      584      663     1181      979
  grid # 4     4304     4304     4304     4304     4304     4304     4304
  grid # 5     1192     1192     1192     1192     1192     1192     1192
  grid # 6     5226     5226     5226     5226     5226     5226     5226
   
  number of gridpoints: 
     atom       H78      H79      H80      H81      H82      H83      H84
  grid # 1      110      113      109      110       95       99      109
  grid # 2      435      446      436      437      380      394      434
  grid # 3     1000     1092      955      936       64      163      685
  grid # 4     4304     4304     4304     4304     4304     4304     4304
  grid # 5     1192     1192     1192     1192     1192     1192     1192
  grid # 6     5226     5226     5226     5226     5226     5226     5226
   
  number of gridpoints: 
     atom     total
  grid # 1     8561
  grid # 2    32527
  grid # 3    37346
  grid # 4   361536
  grid # 5   100128
  grid # 6   438984
   
  Peak memory usage:   3772 Mb
  
  end of program grid
   
 Time(grid)  user:       82.6  user+sys:       82.6  wallclock:        7.2
  
  start of program rwr
  
  Peak memory usage:   3768 Mb
  
  end of program rwr
   
 Time(rwr)  user:      114.9  user+sys:      114.9  wallclock:       13.2
  
  start of program scf
  
 Energy computed with NOPS off.
  
       i  u  d  i  g                   
       t  p  i  c  r                                 RMS    maximum
       e  d  i  u  i                       energy  density   DIIS  
       r  t  s  t  d       total energy    change  change    error 
  
etot    1  N  N  2  U   -2066.53290810930           8.4E-04  1.5E-02
etot    2  Y  Y  6  M   -2066.60576287184  7.3E-02  4.9E-04  4.8E-03
etot    3  N  Y  2  U   -2066.59850641477 -7.3E-03  3.9E-04  1.1E-02
etot    4  N  Y  2  U   -2066.61001255610  1.2E-02  1.4E-04  3.9E-03
etot    5  Y  Y  6  M   -2066.61063597515  6.2E-04  5.3E-05  1.8E-03
etot    6  Y  Y  6  M   -2066.61073170399  9.6E-05  3.2E-05  9.4E-04
etot    7  N  Y  2  U   -2066.61080631011  7.5E-05  8.0E-06  4.0E-04
etot    8  N  Y  2  U   -2066.61081412576  7.8E-06  7.3E-06  2.0E-04
etot    9  N  Y  2  U   -2066.61081682206  2.7E-06  4.7E-06  1.2E-04
etot   10  N  N  2  U   -2066.61081800080  1.2E-06  0.0E+00  0.0E+00
  
  
 Energy components, in hartrees:
   (A)  Nuclear repulsion............    5759.57147972787
   (E)  Total one-electron terms.....  -14250.26722372574
   (I)  Total two-electron terms.....    6424.08492599707
   (L)  Electronic energy............   -7826.18229772866  (E+I)
   (N)  Total energy.................   -2066.61081800080  (A+L)
   (O)  Gas phase energy.............   -2066.61081800080
  
                                 Total             Coulomb       Exchange+Corr.
 Total two-electron terms    6424.08492599707    6708.88621634999    -284.80129035291
   Hamiltonian  1........    3263.67832190525    3364.89028407242    -101.21196216717
   Hamiltonian  2........    3243.21200851502    3343.99593227756    -100.78392376255
  
 SCFE: SCF energy: UDFT(b3lyp)     -2066.61081800080 hartrees   iterations:  10
  
 
 Alpha HOMO energy:    -0.30246
 Alpha LUMO energy:    -0.17498
 
  Alpha Orbital energies (hartrees): 
   -19.29189   -19.28189   -19.27080   -19.26754   -19.26474   -19.25875
   -19.25523   -19.23860   -19.23121   -14.50865   -14.49338   -10.46332
   -10.41683   -10.38656   -10.38293   -10.37194   -10.37176   -10.36761
   -10.35594   -10.35350   -10.35267   -10.35052   -10.34899   -10.34671
   -10.34530   -10.34393   -10.34101   -10.33442   -10.33197   -10.31918
   -10.31805   -10.31568   -10.31482   -10.31469   -10.30871   -10.30823
   -10.30650   -10.30238   -10.29790   -10.29313   -10.29232   -10.29147
   -10.28369   -10.27403    -1.21601    -1.21132    -1.18806    -1.17052
    -1.16225    -1.15050    -1.12195    -1.10888    -1.10112    -1.08826
    -1.04798    -1.00948    -0.97589    -0.96900    -0.93551    -0.92515
    -0.89532    -0.89026    -0.87801    -0.86778    -0.86295    -0.85325
    -0.84159    -0.82331    -0.81708    -0.80445    -0.79931    -0.79634
    -0.77905    -0.77740    -0.76712    -0.75218    -0.74078    -0.72993
    -0.72364    -0.71826    -0.70301    -0.70259    -0.69090    -0.67733
    -0.66158    -0.66072    -0.65591    -0.63827    -0.63094    -0.62711
    -0.62045    -0.61579    -0.61251    -0.60341    -0.59968    -0.59683
    -0.59311    -0.58783    -0.58059    -0.57913    -0.57670    -0.57537
    -0.57192    -0.56613    -0.55895    -0.55830    -0.55577    -0.55483
    -0.55059    -0.54837    -0.54749    -0.54616    -0.54076    -0.53697
    -0.53259    -0.52894    -0.52707    -0.52530    -0.52135    -0.52069
    -0.51891    -0.51577    -0.51277    -0.51197    -0.51026    -0.50337
    -0.49816    -0.49204    -0.48885    -0.48448    -0.48002    -0.47865
    -0.47611    -0.46958    -0.46790    -0.46089    -0.45816    -0.45383
    -0.45184    -0.44701    -0.43639    -0.43023    -0.42416    -0.42120
    -0.41631    -0.41289    -0.40357    -0.40176    -0.39312    -0.38653
    -0.38408    -0.37667    -0.37300    -0.36607    -0.35572    -0.35245
    -0.34501    -0.34000    -0.32599    -0.31987    -0.31006    -0.30246
    -0.17498    -0.14179    -0.13423    -0.10755    -0.09488    -0.09293
    -0.08243    -0.07251    -0.06002    -0.05475
 
 
 Beta HOMO energy:    -0.30089
 Beta LUMO energy:    -0.27724
 
  Beta Orbital energies (hartrees): 
   -19.29191   -19.28169   -19.27076   -19.26756   -19.26385   -19.25863
   -19.25485   -19.23834   -19.23108   -14.50846   -14.48907   -10.46357
   -10.41682   -10.38650   -10.38280   -10.37160   -10.37042   -10.36663
   -10.35438   -10.35361   -10.35245   -10.35044   -10.34823   -10.34672
   -10.34536   -10.34378   -10.34101   -10.33194   -10.33191   -10.31900
   -10.31625   -10.31550   -10.31482   -10.31468   -10.30894   -10.30704
   -10.30652   -10.30205   -10.29791   -10.29282   -10.29234   -10.29212
   -10.28350   -10.27392    -1.21548    -1.21021    -1.18806    -1.17035
    -1.16104    -1.15031    -1.11991    -1.10857    -1.10082    -1.08780
    -1.04309    -1.00495    -0.97559    -0.96730    -0.93336    -0.92152
[...]
  grid # 5     1192     1192     1192     1192     1192     1192     1192
  grid # 6     5226     5226     5226     5226     5226     5226     5226
   
  number of gridpoints: 
     atom       C36      O37      C38      O39      C40      C41      C42
  grid # 1       78      113       97      121       99       96      101
  grid # 2      263      437      351      487      364      334      357
  grid # 3        6      100      142      852      203      189      215
  grid # 4     4304     4304     4304     4304     4304     4304     4304
  grid # 5     1192     1192     1192     1192     1192     1192     1192
  grid # 6     5226     5226     5226     5226     5226     5226     5226
   
  number of gridpoints: 
     atom       C43      C44      C45      O46      C47      O48      C49
  grid # 1      100       98       97      115       76      114       77
  grid # 2      362      354      336      439      268      439      267
  grid # 3      150      187      214      271        6      279        6
  grid # 4     4304     4304     4304     4304     4304     4304     4304
  grid # 5     1192     1192     1192     1192     1192     1192     1192
  grid # 6     5226     5226     5226     5226     5226     5226     5226
   
  number of gridpoints: 
     atom       O50      C51      H52      H53      H54      H55      H56
  grid # 1      117       78      111      112      112      113      115
  grid # 2      450      257      448      436      436      434      447
  grid # 3      478        6     1297     1053     1052      815     1089
  grid # 4     4304     4304     4304     4304     4304     4304     4304
  grid # 5     1192     1192     1192     1192     1192     1192     1192
  grid # 6     5226     5226     5226     5226     5226     5226     5226
   
  number of gridpoints: 
     atom       H57      H58      H59      H60      H61      H62      H63
  grid # 1      118      108      112      108      110      108      106
  grid # 2      446      440      442      431      437      431      421
  grid # 3     1123      849      988      791      822      721      511
  grid # 4     4304     4304     4304     4304     4304     4304     4304
  grid # 5     1192     1192     1192     1192     1192     1192     1192
  grid # 6     5226     5226     5226     5226     5226     5226     5226
   
  number of gridpoints: 
     atom       H64      H65      H66      H67      H68      H69      H70
  grid # 1      110      107      107      108      111      112      112
  grid # 2      435      425      425      427      448      442      442
  grid # 3      833      597      607      623     1285     1081     1006
  grid # 4     4304     4304     4304     4304     4304     4304     4304
  grid # 5     1192     1192     1192     1192     1192     1192     1192
  grid # 6     5226     5226     5226     5226     5226     5226     5226
   
  number of gridpoints: 
     atom       H71      H72      H73      H74      H75      H76      H77
  grid # 1      111      111      107      112      110      111      111
  grid # 2      447      436      428      432      421      446      435
  grid # 3     1224      872      597      673      569     1194     1040
  grid # 4     4304     4304     4304     4304     4304     4304     4304
  grid # 5     1192     1192     1192     1192     1192     1192     1192
  grid # 6     5226     5226     5226     5226     5226     5226     5226
   
  number of gridpoints: 
     atom       H78      H79      H80      H81      H82      H83      H84
  grid # 1      111      110      108      112      111      111      109
  grid # 2      436      445      434      445      447      436      435
  grid # 3     1018     1125      822     1052     1297      975      875
  grid # 4     4304     4304     4304     4304     4304     4304     4304
  grid # 5     1192     1192     1192     1192     1192     1192     1192
  grid # 6     5226     5226     5226     5226     5226     5226     5226
   
  number of gridpoints: 
     atom     total
  grid # 1     8637
  grid # 2    32669
  grid # 3    40658
  grid # 4   361536
  grid # 5   100128
  grid # 6   438984
   
  Peak memory usage:   3772 Mb
  
  end of program grid
   
 Time(grid)  user:       60.1  user+sys:       60.1  wallclock:        5.7
  
  start of program rwr
  
  Peak memory usage:   3768 Mb
  
  end of program rwr
   
 Time(rwr)  user:      105.6  user+sys:      105.6  wallclock:       11.5
  
  start of program scf
  
 Energy computed with NOPS off.
  
       i  u  d  i  g                   
       t  p  i  c  r                                 RMS    maximum
       e  d  i  u  i                       energy  density   DIIS  
       r  t  s  t  d       total energy    change  change    error 
  
etot    1  N  N  2  U   -2067.23931802241           1.5E-04  3.3E-03
etot    2  Y  Y  6  M   -2067.24195513172  2.6E-03  3.6E-05  6.5E-04
etot    3  N  Y  2  U   -2067.24188037648 -7.5E-05  2.3E-05  1.3E-03
etot    4  N  Y  2  U   -2067.24195978774  7.9E-05  7.6E-06  2.8E-04
etot    5  N  Y  2  U   -2067.24196042109  6.3E-07  4.5E-06  2.7E-04
etot    6  N  N  2  U   -2067.24196202146  1.6E-06  0.0E+00  0.0E+00
  
  
 Energy components, in hartrees:
   (A)  Nuclear repulsion............    5410.13775632544
   (E)  Total one-electron terms.....  -13557.14448916126
   (I)  Total two-electron terms.....    6079.76477081436
   (L)  Electronic energy............   -7477.37971834690  (E+I)
   (N)  Total energy.................   -2067.24196202146  (A+L)
   (O)  Gas phase energy.............   -2067.24196202146
  
                                 Total             Coulomb       Exchange+Corr.
 Total two-electron terms    6079.76477081436    6364.73287088136    -284.96810006700
   Hamiltonian  1........    3090.72654134746    3191.99893717200    -101.27239582454
   Hamiltonian  2........    3071.88205491403    3172.73393370936    -100.85187879533
  
 SCFE: SCF energy: UDFT(b3lyp)     -2067.24196202146 hartrees   iterations:   6
  
 
 Alpha HOMO energy:    -0.27233
 Alpha LUMO energy:    -0.14664
 
  Alpha Orbital energies (hartrees): 
   -19.30007   -19.29191   -19.25763   -19.24960   -19.23558   -19.22470
   -19.22285   -19.22186   -19.20607   -14.50486   -14.46636   -10.43066
   -10.39013   -10.38538   -10.37466   -10.35586   -10.35563   -10.34092
   -10.33566   -10.33470   -10.33304   -10.32799   -10.32711   -10.32556
   -10.32321   -10.31603   -10.31591   -10.31588   -10.31472   -10.31350
   -10.31047   -10.30730   -10.30382   -10.29989   -10.29934   -10.29669
   -10.29532   -10.29124   -10.28192   -10.28167   -10.27233   -10.26820
   -10.25020   -10.24922    -1.21022    -1.18759    -1.17059    -1.12768
    -1.12466    -1.11983    -1.11152    -1.10464    -1.09366    -1.08430
    -1.06363    -0.97744    -0.95739    -0.93640    -0.92484    -0.91167
    -0.89066    -0.87533    -0.87265    -0.85922    -0.84795    -0.83364
    -0.82487    -0.82222    -0.80643    -0.79048    -0.77678    -0.77373
    -0.76320    -0.75317    -0.74786    -0.74245    -0.73543    -0.72396
    -0.70756    -0.69967    -0.68837    -0.67580    -0.67337    -0.66227
    -0.65569    -0.65383    -0.63480    -0.63009    -0.61899    -0.61225
    -0.60603    -0.60210    -0.59793    -0.59110    -0.58180    -0.58092
    -0.57733    -0.57700    -0.57440    -0.56757    -0.56642    -0.56344
    -0.56032    -0.55819    -0.55094    -0.54636    -0.54541    -0.54387
    -0.53375    -0.53176    -0.53090    -0.52951    -0.52649    -0.52241
    -0.51795    -0.51626    -0.51163    -0.50736    -0.50681    -0.50363
    -0.50159    -0.49945    -0.49666    -0.49247    -0.48959    -0.48852
    -0.48385    -0.48186    -0.48032    -0.47536    -0.47387    -0.46590
    -0.46226    -0.45625    -0.45244    -0.44581    -0.44431    -0.44376
    -0.43863    -0.43665    -0.43141    -0.42269    -0.41755    -0.41271
    -0.40318    -0.40224    -0.40014    -0.39272    -0.38681    -0.38433
    -0.38206    -0.38081    -0.36935    -0.35847    -0.35569    -0.34345
    -0.33956    -0.33721    -0.32756    -0.31566    -0.28035    -0.27233
    -0.14664    -0.11513    -0.11079    -0.10001    -0.07514    -0.04845
    -0.02890    -0.01851    -0.01335    -0.00967
 
 
 Beta HOMO energy:    -0.27229
 Beta LUMO energy:    -0.25729
 
  Beta Orbital energies (hartrees): 
   -19.29735   -19.29191   -19.25762   -19.24959   -19.23558   -19.22469
   -19.22285   -19.22185   -19.20607   -14.50372   -14.46202   -10.43066
   -10.39013   -10.38319   -10.37184   -10.35585   -10.35500   -10.34102
   -10.33566   -10.33320   -10.33103   -10.32798   -10.32711   -10.32563
   -10.32123   -10.31647   -10.31603   -10.31533   -10.31472   -10.31350
   -10.31048   -10.30821   -10.30382   -10.29983   -10.29935   -10.29656
   -10.29532   -10.29124   -10.28192   -10.28167   -10.27232   -10.26820
   -10.25020   -10.24922    -1.21021    -1.18192    -1.17057    -1.12767
    -1.12258    -1.11721    -1.11151    -1.10464    -1.09365    -1.08429
    -1.05761    -0.97442    -0.95646    -0.93055    -0.92473    -0.91024
    -0.88914    -0.87344    -0.87099    -0.85839    -0.84576    -0.83352
    -0.82486    -0.82191    -0.80422    -0.78960    -0.77674    -0.77243
    -0.76243    -0.75247    -0.74585    -0.74218    -0.73463    -0.72209
    -0.70604    -0.69875    -0.68606    -0.67479    -0.67242    -0.66214
    -0.65527    -0.65265    -0.63456    -0.62746    -0.61678    -0.61051
    -0.60586    -0.60165    -0.59613    -0.58963    -0.58129    -0.57732
    -0.57566    -0.57413    -0.57168    -0.56704    -0.56547    -0.56232
    -0.55901    -0.55531    -0.55063    -0.54544    -0.54483    -0.54103
    -0.53222    -0.53108    -0.52971    -0.52874    -0.52587    -0.52179
    -0.51711    -0.51618    -0.51069    -0.50663    -0.50609    -0.50307
    -0.50142    -0.49814    -0.49662    -0.49175    -0.48854    -0.48323
    -0.48228    -0.48013    -0.47824    -0.47392    -0.47267    -0.46537
    -0.46148    -0.45602    -0.45192    -0.44567    -0.44422    -0.44367
    -0.43653    -0.43335    -0.42429    -0.42240    -0.41704    -0.41244
    -0.40317    -0.40221    -0.40006    -0.38680    -0.38433    -0.38204
    -0.38080    -0.37558    -0.36868    -0.35846    -0.34996    -0.34340
    -0.33953    -0.32751    -0.31384    -0.28033    -0.27229    -0.25729
    -0.12977    -0.11507    -0.11077    -0.09065    -0.05903    -0.04844
    -0.02779    -0.01673    -0.01280
 
  
  
    Unrestricted Spin Properties ...
    Sz*(Sz+1)      0.750
    <S**2> ...     0.759
  
  
  Peak memory usage:   5824 Mb
  
  end of program scf
   
 Time(scf)  user:      402.5  user+sys:      402.5  wallclock:       34.1
  
  start of program der1a
  
  Peak memory usage:   3833 Mb
  
  end of program der1a
   
 Time(der1a)  user:        6.4  user+sys:        6.4  wallclock:        1.1
  
  start of program rwr
  
  Peak memory usage:   3768 Mb
  
  end of program rwr
   
 Time(rwr)  user:       88.7  user+sys:       88.7  wallclock:       13.9
  
  start of program der1b
  
   
  forces (hartrees/bohr) : total     
   
 atom  label           x              y              z
 ---- --------   -------------  -------------  -------------
    1 C1          1.217944E-04   7.493976E-05  -7.779875E-05
    2 O2         -9.748038E-05  -3.769618E-05   2.700484E-05
    3 C3          2.276776E-04   4.514438E-04  -1.889402E-04
    4 C4         -2.481762E-05  -2.817282E-04   2.649227E-04
    5 C5         -4.969199E-05  -8.625595E-05  -3.092618E-04
    6 C6         -5.451713E-04  -1.429080E-04   3.482930E-04
    7 C7          2.133970E-04   4.011170E-04   3.608145E-05
    8 C8          2.279412E-05   4.246820E-05   1.289463E-05
    9 N9         -6.230301E-05   5.256243E-04  -7.249434E-05
   10 H10         5.117652E-04   2.851872E-05  -6.366624E-05
   11 C11        -7.361884E-06   2.552242E-04  -1.726117E-04
   12 C12         6.876239E-06  -6.045002E-04   5.585892E-05
   13 C13         3.975434E-04  -4.337989E-04   2.864908E-04
   14 C14         2.474530E-04   2.711368E-04   3.884686E-04
   15 N15        -9.331992E-04  -2.193591E-04  -2.437136E-04
   16 C16         2.174278E-04   2.386030E-05  -1.092982E-04
   17 H17         9.227139E-05   2.088871E-04   1.052375E-04
   18 C18         4.333958E-05   1.071948E-04   3.501371E-04
   19 C19        -3.566364E-04   2.403094E-04  -1.024054E-03
   20 H20         1.398600E-04   9.546225E-06  -1.080543E-04
   21 C21         1.228267E-04   1.259596E-04   1.477628E-04
   22 H22         1.074251E-04   5.823981E-05  -9.930359E-05
   23 C23         2.886991E-04  -6.492786E-05   1.128229E-04
   24 C24         2.075334E-04   2.520093E-04   2.291916E-04
   25 C25         4.848443E-04   2.726391E-04  -5.661725E-04
   26 H26         2.264002E-06  -5.165650E-05  -1.228556E-04
   27 C27        -2.225307E-04   7.363034E-05  -1.660500E-04
   28 H28         8.083515E-05  -2.720271E-05   1.208284E-04
   29 C29         1.208538E-03  -5.320677E-04   7.335621E-04
   30 H30         5.702222E-05   2.447442E-05  -1.190730E-04
   31 C31        -6.351014E-04   5.420253E-04  -2.560808E-03
   32 O32        -1.587024E-04  -3.622525E-04   3.148797E-03
   33 O33        -2.754691E-04   2.927244E-04  -4.895217E-04
   34 C34         1.132874E-04  -1.578018E-04  -9.345220E-05
   35 O35        -2.595660E-04   8.615613E-05   1.067553E-04
   36 C36         3.196477E-05   9.724928E-05   1.065506E-04
   37 O37        -4.629679E-04  -4.079003E-04   6.811184E-04
   38 C38         4.656364E-04   1.417610E-04  -3.899649E-04
   39 O39        -3.021769E-04  -1.019883E-04   2.611427E-05
   40 C40        -2.281702E-04  -1.202116E-04  -4.425386E-04
   41 C41         4.670419E-04   5.148546E-05   1.382983E-04
   42 C42        -1.511639E-04  -3.525422E-04   2.480306E-04
   43 C43         1.947143E-04   6.145369E-04  -1.657527E-04
   44 C44        -2.909979E-04  -6.440757E-05  -2.274351E-04
   45 C45        -7.045721E-05   7.266367E-05  -5.840179E-05
   46 O46        -1.390006E-04  -2.142602E-04  -1.408405E-04
   47 C47        -4.397177E-05   9.112249E-05   7.052152E-05
   48 O48         1.661252E-04   1.048562E-04   1.402477E-04
   49 C49        -1.137543E-04  -4.038518E-04   2.870739E-04
   50 O50         2.684421E-04   3.327141E-04   3.707969E-04
   51 C51        -1.272822E-04   5.415635E-06  -2.087067E-04
   52 H52         9.005982E-05   8.039338E-05  -6.826945E-05
   53 H53        -5.457532E-05  -1.949067E-05  -2.421418E-05
   54 H54         1.507087E-05   1.076051E-06  -2.766309E-05
   55 H55        -9.711548E-05   4.967736E-05  -1.835371E-04
   56 H56        -4.117422E-05  -1.963144E-04   2.106876E-05
   57 H57         1.215429E-04   1.505802E-04  -1.245362E-04
   58 H58         5.415668E-05   1.442047E-05  -4.804756E-04
   59 H59        -5.495612E-06  -7.746076E-05   1.152083E-04
   60 H60        -2.826556E-04  -8.410671E-05   1.452031E-04
   61 H61         6.487202E-05   9.883621E-05   3.787078E-05
   62 H62        -1.221238E-04  -3.549129E-05   5.675541E-06
   63 H63         5.423542E-05  -7.580810E-06   4.396274E-05
   64 H64        -9.182468E-05   1.839376E-04  -5.546213E-05
   65 H65         3.480046E-05   6.513694E-05  -3.612357E-05
   66 H66        -9.568658E-06   1.164786E-05  -6.107776E-06
   67 H67         4.182058E-05  -4.700800E-05  -1.110032E-04
   68 H68         4.218620E-05   3.992865E-05  -2.100144E-04
   69 H69        -2.143906E-04  -6.067243E-05   5.266648E-05
   70 H70         1.955981E-04  -4.077488E-05   6.595059E-05
   71 H71         3.244624E-05  -3.649227E-05  -1.611071E-04
   72 H72         4.203944E-05   1.494903E-05   1.720869E-05
   73 H73         5.301657E-05   4.158445E-08  -1.820432E-05
   74 H74         2.743183E-06   2.746619E-06   4.662581E-05
   75 H75         8.705377E-06  -3.691571E-05  -1.962375E-05
   76 H76        -1.840462E-05   6.779731E-05  -5.342420E-07
   77 H77         1.214263E-05   1.739742E-05  -7.544812E-07
   78 H78        -4.910453E-06   6.961651E-05  -2.182578E-05
   79 H79        -5.503689E-06   1.491426E-04  -6.039161E-05
   80 H80         1.957890E-05  -1.456345E-04  -1.431919E-04
   81 H81         1.481501E-05   2.478995E-04  -2.561699E-04
   82 H82        -1.174295E-04   2.068106E-05  -9.002845E-05
   83 H83         1.267475E-05  -7.188941E-05  -1.010860E-05
   84 H84        -1.761449E-05   3.853252E-06   4.343633E-06
 -------------   -------------  -------------  -------------
     total        7.811439E-04   1.642544E-03  -1.230471E-03
   
  Peak memory usage:   5752 Mb
  
  end of program der1b
   
 Time(der1b)  user:      186.1  user+sys:      186.1  wallclock:       13.2
  
  start of program geopt
  
 ----------------------------------------------------------------------------
  Geometry optimization step100
  Total energy:     -2067.24196202146 hartrees
 ----------------------------------------------------------------------------
  
  
  Level shifts adjusted to satisfy step-size constraints
   Step size:    0.0376050
   Cos(theta):   0.5268608
   Final level shift:  -5.1141423E-02
  
  energy change:          -1.5798E-04 .  (  5.0000E-05 )
  gradient maximum:        3.1071E-03 .  (  4.5000E-04 )
  gradient rms:            4.6885E-04 .  (  3.0000E-04 )
  displacement maximum:    1.3876E-02 .  (  1.8000E-03 )
  displacement rms:        2.2554E-03 .  (  1.2000E-03 )
  
  predicted energy change:  -1.1360E-04
  step size:     0.03760
  trust radius:  0.03750
  
  stopping optimization: maximum number of iterations reached
  
  
 ERROR 7019: fatal error
  
  geometry optimization failed to converge


 ----------------------------------------------------------------------
 Jaguar cannot recover from this error and will now abort. 
 For technical support please contact the Schrodinger Support Center at
 http://www.schrodinger.com/supportcenter/ or help@schrodinger.com
 ----------------------------------------------------------------------



 Total cpu seconds     user:  105977.533   user+sys:  105977.533

  
Date:          Mon 09 Jan 2017 01:19:13
SCHRODINGER:   /home/applications/Schrodinger_Suites_2016-3
uname -a:      Linux n079 2.6.32-431.el6.x86_64 #1 SMP Fri Nov 22 03:15:09 UTC 2013 x86_64 x86_64 x86_64 GNU/Linux
FQDN:          n079.panther.net
Main memory:   96830 MB
Free disk:     39882322 MB
Host ID:       a0000300fe80
Machine name:  n079
OS:            CentOS release 6.5 (Final)
CPU:           Intel(R) Xeon(R) CPU E5-2470 0 @ 2.30GHz
Processors:    16
Memory:        101534314 kB
Swap:          0 kB
kernel:        2.6.32-431.el6.x86_64
glibc:         2.12
Product:       aacg-v17015-Linux-x86_64 (4d5e4891b95edc3974c2f897a8f2bbfda884f701)
Product:       bioluminate-v24015-Linux-x86_64 (c7e9ddecc01a31ee6f1f49fd0866fec40be878d9)
Product:       canvas-v29015-Linux-x86_64 (eefcb58a94f04937200c16cc72ce65c92553d20f)
Product:       combiglide-v42015-Linux-x86_64 (649832a5082f66cb6c92b108724a8a540362cfc8)
Product:       desmond-v47015-Linux-x86_64 (cd195a3f6f7c69c2e4a7d397341063b5fd7f9fa7)
Product:       epik-v37015-Linux-x86_64 (3a54a2d4762d4d26ff3f381b6eba74ffec5b135e)
Product:       glide-v72015-Linux-x86_64 (7bda026d4634ee2331fde20a7d677e0633c1458c)
Product:       impact-v72015-Linux-x86_64 (78357f574412e54dad3121cb0c6c311417a07a40)
Product:       jaguar-v93015-Linux-x86_64 (c979cf15abdb397bfe3d00837bb358b46bdb9998)
Product:       knime-v35015-Linux-x86_64 (fe637e1275d976d9c56b403a2c6666f075125988)
Product:       macromodel-v113015-Linux-x86_64 (c5bdb4b8bf816c7fdd53141b85dce76bf6aeaad9)
Product:       maestro-v107015-Linux-x86_64 (c112f21020c11ad6d55a6f13bf2f9e71852ad421)
Product:       mcpro-v43015-Linux-x86_64 (a66fce8e103e80d6ab062d78a9dd96a664b153ee)
Product:       mmshare-v35015-Linux-x86_64 (6deaa6dca9205019a9800e1f617340ea168c2739)
Product:       phase-v48015-Linux-x86_64 (5f5e3df18b3bb719c7300fee47d9ebb55737e27a)
Product:       pldb-v35015-Linux-x86_64 (5fa9a4c6731880caf6cab7034454a839dd077a79)
Product:       psp-v45015-Linux-x86_64 (af3c2b23dcf79d506aa27a3bffa4cca73631134b)
Product:       qikprop-v49015-Linux-x86_64 (5521a265f711fdfde92d556bb69a9e3f62beb1bd)
