Job verapamil_1 started on n034 at Sun Jan  8 22:28:20 2017
jobid: u01-0-5873029d

  +--------------------------------------------------------------------+
  |  Jaguar version 9.3, release  15                                   |
  |                                                                    |
  |  Copyright Schrodinger, Inc.                                       |
  |  All Rights Reserved.                                              |
  |                                                                    |
  |  The following have contributed to Jaguar (listed alphabetically): |
  |  Mike Beachy, Art Bochevarov, Dale Braden, Yixiang Cao,            |
  |  Chris Cortis, Rich Friesner, Bill Goddard, Hod Greeley,           |
  |  Tom Hughes, Leif Jacobson, Jean-Marc Langlois,                    |
  |  Daniel Mainz, Rob Murphy, Dean Philipp,                           |
  |  Tom Pollard, Murco Ringnalda, Mark Watson.                        |
  |                                                                    |
  |  Use of this program should be acknowledged in publications as:    |
  |                                                                    |
  |  Jaguar, version 9.3, Schrodinger, Inc., New York, NY, 2016.       |
  |                                                                    |
  |  A. D. Bochevarov, E. Harder, T. F. Hughes, J. R. Greenwood,       |
  |  D. A. Braden, D. M. Philipp, D. Rinaldo, M. D. Halls,             |
  |  J. Zhang, R. A. Friesner, "Jaguar: A High-Performance Quantum     |
  |  Chemistry Software Program with Strengths in Life and Materials   |
  |  Sciences", Int. J. Quantum Chem., 2013, 113(18), 2110-2142.       |
  +--------------------------------------------------------------------+
  
  start of program pre
  
  Job name: verapamil_1
  Executables used: /home/applications/Schrodinger_Suites_2016-3/jaguar-v9.3/bin/Linux-x86_64
  Temporary files : /scratch/Schrodinger_Suites/pbeni001/verapamil_1#u01-0-5873029d
  Maestro file (input):  verapamil_1.mae
  Maestro file (output): verapamil_1.01.mae
  
  basis set:             6-31g                           
  net molecular charge:    1
  multiplicity:            2
  
  Using up to  16 threads per process
  
  number of basis functions....          373
  
 Input geometry:
                                   angstroms
  atom               x                 y                 z
  C1            0.8373670000     -0.0513100000     -0.0864697000 
  C2            2.3715953000     -0.0367830000     -0.0448592000 
  C3            2.9173133000     -0.1266329000     -1.4891889000 
  C4            2.9367581000      1.1447194000      0.8718052000 
  C5            2.4094572000      2.5586539000      0.4331248000 
  C6            2.8514044000      2.8960139000     -0.9786368000 
  C7            2.3862289000      4.2020045000     -1.5535698000 
  N8            2.8635689000      4.2964669000     -2.9492855000 
  C9            2.4189812000      3.1896883000     -3.8118258000 
  C10           2.3942501000      5.5775845000     -3.4728987000 
  C11           2.9181643000      5.8551121000     -4.8769665000 
  C12           2.4775121000      7.1966920000     -5.3637281000 
  C13           1.7847480000      7.3152192000     -6.5686323000 
  C14           1.4942960000      8.5758043000     -7.0653991000 
  C15           1.9662522000      9.7254951000     -6.4183591000 
  C16           2.6306231000      9.6057668000     -5.1802722000 
  C17           2.8218230000      8.3407908000     -4.6457551000 
  O18           3.0896036000     10.7514028000     -4.5788408000 
  C19           3.8181148000     10.5828016000     -3.3635466000 
  O20           1.8440055000     10.9928060000     -6.9262562000 
  C21           1.2520000000     11.1010770000     -8.2139301000 
  C22           2.4300901000      0.9199397000      2.2871361000 
  N23           2.0097670000      0.7334662000      3.4612704000 
  C24           4.4876041000      1.1201082000      0.9466003000 
  C25           5.2538008000      2.2962329000      0.9606899000 
  C26           6.6360722000      2.2626292000      0.8122226000 
  C27           7.2993641000      1.0527751000      0.6238410000 
  C28           6.5694511000     -0.1465217000      0.7092742000 
  C29           5.1896718000     -0.0959378000      0.9473353000 
  O30           7.2628318000     -1.3158623000      0.5128478000 
  C31           6.5091014000     -2.5240279000      0.5123364000 
  O32           8.6404516000      0.9594022000      0.3481369000 
  C33           9.3454290000      2.1904958000      0.2242654000 
  H34           0.4760721000     -0.8763775000     -0.7068161000 
  H35           0.4298786000      0.8742562000     -0.5013649000 
  H36           0.4223824000     -0.1890446000      0.9166424000 
  H37           2.6557317000     -0.9887993000      0.4218820000 
  H38           2.3806943000      0.5083995000     -2.1925834000 
  H39           2.7573750000     -1.1250321000     -1.9041379000 
  H40           3.9847624000      0.1012665000     -1.5585753000 
  H41           2.7196255000      3.3426200000      1.1352631000 
  H42           1.3140985000      2.5858800000      0.4708259000 
  H43           2.3402917000      2.1767149000     -1.5841364000 
  H44           3.9293267000      2.7869036000     -1.1380471000 
  H45           2.7886273000      5.0257927000     -0.9510584000 
  H46           1.2918283000      4.2490881000     -1.5124001000 
  H47           2.8401604000      2.2296688000     -3.5067694000 
  H48           2.7942006000      3.2847732000     -4.8343984000 
  H49           1.3271920000      3.1149840000     -3.8449397000 
  H50           2.7517851000      6.3567712000     -2.7891780000 
  H51           1.2975373000      5.6245603000     -3.4605507000 
  H52           2.5612723000      5.1042895000     -5.5871739000 
  H53           4.0153927000      5.8125171000     -4.8950132000 
  H54           1.4910812000      6.4310609000     -7.1281214000 
  H55           0.9223919000      8.6242186000     -7.9880505000 
  H56           3.2864761000      8.2141042000     -3.6715666000 
  H57           4.2004896000     11.5583741000     -3.0537244000 
  H58           4.6835316000      9.9201551000     -3.4918955000 
  H59           3.1597321000     10.2128287000     -2.5692932000 
  H60           1.3013530000     12.1486586000     -8.5201378000 
  H61           0.1973344000     10.8100831000     -8.1735090000 
  H62           1.7952020000     10.5116436000     -8.9621824000 
  H63           4.8037483000      3.2831631000      1.0143460000 
  H64           7.1532719000      3.2169850000      0.8035849000 
  H65           4.6364859000     -1.0182718000      1.0865203000 
  H66           7.1873827000     -3.3499460000      0.2812870000 
  H67           5.7274477000     -2.5153728000     -0.2572152000 
  H68           6.0817474000     -2.7111595000      1.5030664000 
  H69          10.3848893000      1.9661472000     -0.0270143000 
  H70           9.3419673000      2.7357629000      1.1745783000 
  H71           8.9349361000      2.8084429000     -0.5835630000 
   
  principal moments of inertia:
        amu*angstrom^2:     2405.52198    12836.81778    13779.94448
                g*cm^2: 3.99446272E-37 2.13160348E-36 2.28821333E-36
   
  rotational constants:
               cm^(-1):      0.00700789      0.00131322      0.00122335
                   GHz:      0.21009120      0.03936949      0.03667497
   
  Molecular weight:     454.28 amu
   
  Stoichiometry: C27N2H38O4
  Molecular Point Group: C1      
  Point Group used: C1
  
 
Number of optimization coordinates:   224
Number of independent coordinates:    224
Number of non-redundant coordinates:  207
Number of frozen coordinates:           0
Number of harmonic constraints:         0
 
Number of geometric degrees of freedom:   207
Maximum geometric degrees of freedom:     207
 " " " " " excluding dummy atoms:         207
 
  nuclear repulsion energy.......    3254.105282957 hartrees
 
 Non-default options chosen:
   SCF calculation type: UDFT(b3lyp)                 
   UDFT=Becke_3_Parameter/HF+Slater+Becke88+VWN+LYP (B3LYP)
   Geometry will be optimized in redundant internal coordinates
   Electrostatic potential fit to point charges on atomic centers
   Electrostatic potential fitting constrained to reproduce
     total charge:                yes
     dipole moment:               yes
     traceless quadrupole moment: no 
     traceless octapole moment:   no 
  
 Temporary integer options set:
     73=  2
  
  Peak memory usage:   4805 Mb
  
  end of program pre
   
 Time(pre)  user:        7.7  user+sys:        7.7  wallclock:        0.9
  
  start of program onee
  
  smallest eigenvalue of S:    5.350E-04
  number of canonical orbitals.....          373
  Peak memory usage:   4838 Mb
  
  end of program onee
   
 Time(onee)  user:        4.6  user+sys:        4.6  wallclock:        0.6
  
  start of program hfig
  
  initial wavefunction generated automatically from atomic wavefunctions
  
  -------------------
  Alpha orbital space
  -------------------
 
  Irreducible     Total no   No of occupied orbitals 
  representation  orbitals   Shell_1  Shell_2    ...
  No Symm          373        123
  ------------------------
  Orbital occupation/shell    1.000
 
  ------------------
  Beta orbital space
  ------------------
 
  Irreducible     Total no   No of occupied orbitals 
  representation  orbitals   Shell_1  Shell_2    ...
  No Symm          373        122
  ------------------------
  Orbital occupation/shell    1.000
 
  
  
    Unrestricted Spin Properties ...
    Sz*(Sz+1) ..............     0.750
    <S**2> of initial guess      0.750
  
  
  Peak memory usage:   4756 Mb
  
  end of program hfig
   
 Time(hfig)  user:        3.8  user+sys:        3.8  wallclock:        1.2
  
  start of program probe
  
  Peak memory usage:   4756 Mb
  
  end of program probe
   
 Time(probe)  user:        3.3  user+sys:        3.3  wallclock:        0.8
  
  start of program grid
  
   grid     grid set  grid #  grid sym
  ------    --------  ------  --------
  coarse        0        0        1
  medium        2        1        1
  fine          0        0        1
  ultrafine     4        2        1
  charge       -1        3        1
  gradient      4        2        1
  density       0        0        1
  DFT-fine    -11        4        1
  DFT-med.    -10        5        1
  DFT-grad    -12        6        1
  DFT-der2      0        0        1
  DFT-cphf      0        0        1
  LMP2-enrg     4        2        1
  LMP2-grad     2        1        1
  DFT-cphf2     0        0        1
  PBF-dens      0        0        1
  plotting      0        0        1
  Rel-grad    -17        0        1
  
  number of gridpoints: 
     atom        C1       C2       C3       C4       C5       C6       C7
  grid # 1       78       89       77       97       86       84       86
  grid # 2      270      320      268      346      293      281      281
  grid # 3        6        6        6        6        6        6        6
  grid # 4     4304     4304     4304     4304     4304     4304     4304
  grid # 5     1192     1192     1192     1192     1192     1192     1192
  grid # 6     5226     5226     5226     5226     5226     5226     5226
   
  number of gridpoints: 
     atom        N8       C9      C10      C11      C12      C13      C14
  grid # 1      107       75       85       86      100       97       96
  grid # 2      390      262      282      281      361      335      334
  grid # 3      124        6        6        6       98      208      202
  grid # 4     4304     4304     4304     4304     4304     4304     4304
  grid # 5     1192     1192     1192     1192     1192     1192     1192
  grid # 6     5226     5226     5226     5226     5226     5226     5226
   
  number of gridpoints: 
     atom       C15      C16      C17      O18      C19      O20      C21
  grid # 1       97       98       96      115       77      115       77
  grid # 2      351      354      338      450      259      450      263
  grid # 3      216      216      169      549        6      535        6
  grid # 4     4304     4304     4304     4304     4304     4304     4304
  grid # 5     1192     1192     1192     1192     1192     1192     1192
  grid # 6     5226     5226     5226     5226     5226     5226     5226
   
  number of gridpoints: 
     atom       C22      N23      C24      C25      C26      C27      C28
  grid # 1      102      123      100       94       94       99       96
  grid # 2      416      516      360      330      338      353      357
  grid # 3      127     1639       65      130      182      194      175
  grid # 4     4304     4304     4304     4304     4304     4304     4304
  grid # 5     1192     1192     1192     1192     1192     1192     1192
  grid # 6     5226     5226     5226     5226     5226     5226     5226
   
  number of gridpoints: 
     atom       C29      O30      C31      O32      C33      H34      H35
  grid # 1       96      116       76      116       76      110      103
  grid # 2      334      449      261      450      259      438      417
  grid # 3      118      534        6      545        6      962      560
  grid # 4     4304     4304     4304     4304     4304     4304     4304
  grid # 5     1192     1192     1192     1192     1192     1192     1192
  grid # 6     5226     5226     5226     5226     5226     5226     5226
   
  number of gridpoints: 
     atom       H36      H37      H38      H39      H40      H41      H42
  grid # 1      108      105      101      108      105      106      107
  grid # 2      431      415      397      431      424      414      413
  grid # 3      830      431      293      867      510      571      486
  grid # 4     4304     4304     4304     4304     4304     4304     4304
  grid # 5     1192     1192     1192     1192     1192     1192     1192
  grid # 6     5226     5226     5226     5226     5226     5226     5226
   
  number of gridpoints: 
     atom       H43      H44      H45      H46      H47      H48      H49
  grid # 1       96      104      106      109      104      106      107
  grid # 2      378      415      428      424      410      419      430
  grid # 3       48      355      669      579      434      703      780
  grid # 4     4304     4304     4304     4304     4304     4304     4304
  grid # 5     1192     1192     1192     1192     1192     1192     1192
  grid # 6     5226     5226     5226     5226     5226     5226     5226
   
  number of gridpoints: 
     atom       H50      H51      H52      H53      H54      H55      H56
  grid # 1      101      107      103      110      115      111      103
  grid # 2      416      426      410      440      441      430      408
  grid # 3      391      673      383      937     1076      776      295
  grid # 4     4304     4304     4304     4304     4304     4304     4304
  grid # 5     1192     1192     1192     1192     1192     1192     1192
  grid # 6     5226     5226     5226     5226     5226     5226     5226
   
  number of gridpoints: 
     atom       H57      H58      H59      H60      H61      H62      H63
  grid # 1      112      109      111      112      110      111      109
  grid # 2      447      435      435      448      435      435      419
  grid # 3     1296      968      989     1290     1004      992      582
  grid # 4     4304     4304     4304     4304     4304     4304     4304
  grid # 5     1192     1192     1192     1192     1192     1192     1192
  grid # 6     5226     5226     5226     5226     5226     5226     5226
   
  number of gridpoints: 
     atom       H64      H65      H66      H67      H68      H69      H70
  grid # 1      110      101      113      109      110      113      109
  grid # 2      426      407      448      432      435      448      435
  grid # 3      733      298     1295      755      998     1300      997
  grid # 4     4304     4304     4304     4304     4304     4304     4304
  grid # 5     1192     1192     1192     1192     1192     1192     1192
  grid # 6     5226     5226     5226     5226     5226     5226     5226
   
  number of gridpoints: 
     atom       H71    total
  grid # 1      111     7191
  grid # 2      435    27367
  grid # 3      976    34192
  grid # 4     4304   305584
  grid # 5     1192    84632
  grid # 6     5226   371046
   
  Peak memory usage:   4785 Mb
  
  end of program grid
   
 Time(grid)  user:       50.6  user+sys:       50.6  wallclock:        3.7
  
  start of program rwr
  
  Peak memory usage:   4748 Mb
  
  end of program rwr
   
 Time(rwr)  user:       75.6  user+sys:       75.6  wallclock:        8.3
  
  start of program scf
  
 number of electrons..........        245
 number of alpha electrons....        123
 number of beta electrons.....        122
 number of alpha orbitals.....        373
 number of beta orbitals......        373
 number of alpha occupied orb..       123
 number of alpha virtual orb...       250
 number of beta occupied orb...       122
 number of beta virtual orb....       251
 SCF type: UDFT=Becke_3_Parameter/HF+Slater+Becke88+VWN+LYP (B3LYP)
 Energy computed with NOPS off.
  
       i  u  d  i  g                   
       t  p  i  c  r                                 RMS    maximum
       e  d  i  u  i                       energy  density   DIIS  
       r  t  s  t  d       total energy    change  change    error 
  
etot    1  N  N  5  M   -1456.77861798678           8.4E-03  1.5E-01
etot    2  Y  Y  6  M   -1458.64184956748  1.9E+00  7.9E-03  1.7E-01
etot    3  Y  Y  6  M   -1459.04773808452  4.1E-01  5.3E-03  1.4E-01
etot    4  N  Y  2  U   -1461.04053630495  2.0E+00  4.5E-03  7.3E-02
etot    5  Y  Y  6  M   -1461.07809759922  3.8E-02  2.9E-03  7.8E-02
etot    6  N  Y  2  U   -1461.22780834335  1.5E-01  2.2E-03  3.6E-02
etot    7  Y  Y  6  M   -1461.27320340197  4.5E-02  2.2E-03  2.5E-02
etot    8  N  Y  2  U   -1461.27900055280  5.8E-03  2.1E-03  1.7E-02
etot    9  Y  Y  6  M   -1461.31541059181  3.6E-02  2.1E-03  1.2E-02
etot   10  N  Y  2  U   -1461.29931393030 -1.6E-02  1.8E-04  1.1E-02
etot   11  N  Y  2  U   -1461.30444233930  5.1E-03  2.1E-03  1.1E-02
etot   12  Y  Y  6  M   -1461.31936035761  1.5E-02  2.1E-03  9.0E-03
etot   13  N  Y  2  U   -1461.30469434859 -1.5E-02  8.9E-05  1.1E-02
etot   14  N  Y  2  U   -1461.30675707910  2.1E-03  2.8E-05  1.1E-02
etot   15  N  Y  2  U   -1461.30678187382  2.5E-05  2.1E-05  1.3E-02
etot   16  N  Y  2  U   -1461.30718673664  4.0E-04  2.8E-04  1.4E-02
etot   17  Y  Y  6  M   -1461.31666169792  9.5E-03  5.4E-03  2.9E-02
etot   18  N  Y  2  U   -1457.37161118489 -3.9E+00  4.9E-03  9.1E-02
etot   19  N  Y  2  U   -1461.27547122880  3.9E+00  7.2E-04  2.9E-02
etot   20  Y  Y  6  M   -1461.33354001805  5.8E-02  9.2E-04  2.7E-02
etot   21  N  Y  2  U   -1461.35679373977  2.3E-02  1.4E-04  1.2E-03
etot   22  Y  Y  6  M   -1461.35635068492 -4.4E-04  7.8E-05  7.6E-03
etot   23  Y  Y  6  M   -1461.35577708896 -5.7E-04  4.3E-05  1.0E-02
etot   24  N  Y  2  U   -1461.35526253326 -5.1E-04  2.1E-04  1.3E-02
etot   25  Y  Y  6  M   -1461.35055506815 -4.7E-03  7.2E-05  2.2E-02
etot   26  Y  Y  6  M   -1461.34841485949 -2.1E-03  1.5E-04  2.5E-02
etot   27  N  Y  2  U   -1461.35204639866  3.6E-03  2.7E-04  2.0E-02
etot   28  Y  Y  6  M   -1461.35667027234  4.6E-03  3.1E-05  6.0E-03
etot   29  N  Y  2  U   -1461.35656945531 -1.0E-04  7.1E-05  6.1E-03
etot   30  Y  Y  6  M   -1461.35585499020 -7.1E-04  1.1E-04  1.0E-02
etot   31  Y  Y  6  M   -1461.35684067734  9.9E-04  9.9E-05  3.5E-03
etot   32  Y  Y  6  M   -1461.35702842526  1.9E-04  2.1E-05  7.4E-04
etot   33  N  Y  2  U   -1461.35702923781  8.1E-07  3.2E-05  5.1E-04
etot   34  N  Y  2  U   -1461.35703996503  1.1E-05  1.9E-05  2.2E-04
etot   35  N  Y  2  U   -1461.35704027100  3.1E-07  1.0E-05  5.1E-04
etot   36  N  Y  2  U   -1461.35704328453  3.0E-06  5.3E-06  1.2E-04
etot   37  N  Y  2  U   -1461.35704377315  4.9E-07  2.9E-06  2.4E-05
etot   38  N  N  2  U   -1461.35704391604  1.4E-07  0.0E+00  0.0E+00
  
  
 Energy components, in hartrees:
   (A)  Nuclear repulsion............    3254.10528295732
   (E)  Total one-electron terms.....   -8428.92621985050
   (I)  Total two-electron terms.....    3713.46389297714
   (L)  Electronic energy............   -4715.46232687336  (E+I)
   (N)  Total energy.................   -1461.35704391604  (A+L)
   (O)  Gas phase energy.............   -1461.35704391604
  
                                 Total             Coulomb       Exchange+Corr.
 Total two-electron terms    3713.46389297714    3922.09306137701    -208.62916839987
   Hamiltonian  1........    1894.55171645502    1968.76377627234     -74.21205981732
   Hamiltonian  2........    1879.58635576910    1953.32928510468     -73.74292933557
  
 SCFE: SCF energy: UDFT(b3lyp)     -1461.35704391604 hartrees   iterations:  38
  
 
 Alpha HOMO energy:    -0.31924
 Alpha LUMO energy:    -0.11861
 
  Alpha Orbital energies (hartrees): 
   -19.30399   -19.29984   -19.29642   -19.29453   -14.43869   -14.43379
   -10.37969   -10.37723   -10.37353   -10.37250   -10.34648   -10.33730
   -10.33404   -10.33227   -10.33065   -10.32260   -10.32219   -10.31645
   -10.30750   -10.30681   -10.30601   -10.30554   -10.30175   -10.30161
   -10.30115   -10.30073   -10.29639   -10.29457   -10.28627   -10.28600
   -10.26398   -10.26200   -10.25384    -1.20564    -1.19889    -1.18692
    -1.18062    -1.03626    -0.98904    -0.98841    -0.96433    -0.93291
    -0.91255    -0.88533    -0.88348    -0.87858    -0.86835    -0.85028
    -0.83520    -0.81919    -0.81483    -0.81187    -0.80115    -0.79130
    -0.77486    -0.75540    -0.72760    -0.72200    -0.71266    -0.70152
    -0.68974    -0.68139    -0.66658    -0.65610    -0.65429    -0.62712
    -0.62020    -0.61870    -0.61673    -0.60235    -0.59716    -0.59256
    -0.58660    -0.58617    -0.58452    -0.57496    -0.56985    -0.56740
    -0.56262    -0.55936    -0.55350    -0.54686    -0.54232    -0.53695
    -0.53490    -0.52735    -0.52092    -0.51600    -0.51285    -0.50833
    -0.50157    -0.50113    -0.49730    -0.49322    -0.49035    -0.48548
    -0.48244    -0.48183    -0.47112    -0.46556    -0.45885    -0.44978
    -0.44779    -0.44506    -0.44238    -0.44078    -0.43804    -0.43697
    -0.43621    -0.43230    -0.43092    -0.42740    -0.42479    -0.42274
    -0.41458    -0.40311    -0.38561    -0.38230    -0.35960    -0.35366
    -0.33099    -0.32635    -0.31924    -0.11861    -0.11621    -0.11086
    -0.11051    -0.06921    -0.06254    -0.03380    -0.02974    -0.01782
    -0.01103
 
 
 Beta HOMO energy:    -0.29922
 Beta LUMO energy:    -0.28925
 
  Beta Orbital energies (hartrees): 
   -19.30078   -19.29752   -19.29389   -19.29213   -14.43853   -14.43244
   -10.37802   -10.37607   -10.37237   -10.37127   -10.34654   -10.33738
   -10.33416   -10.33236   -10.33073   -10.32257   -10.32108   -10.31503
   -10.30742   -10.30700   -10.30498   -10.30452   -10.30215   -10.30193
   -10.30128   -10.30119   -10.29635   -10.29459   -10.28633   -10.28600
   -10.26392   -10.26200   -10.25384    -1.19991    -1.19397    -1.18154
    -1.17566    -1.03422    -0.98646    -0.98546    -0.96344    -0.93205
    -0.90964    -0.88393    -0.88101    -0.87749    -0.86766    -0.84958
    -0.83468    -0.81831    -0.81408    -0.81067    -0.79915    -0.78981
    -0.77447    -0.75423    -0.72612    -0.72074    -0.71072    -0.69961
    -0.68886    -0.68051    -0.66626    -0.65453    -0.65306    -0.62571
    -0.61903    -0.61713    -0.61555    -0.60163    -0.59609    -0.58587
    -0.58499    -0.58263    -0.57985    -0.57000    -0.56662    -0.56556
    -0.56188    -0.55845    -0.55231    -0.54553    -0.54144    -0.53642
    -0.53396    -0.52639    -0.52023    -0.51551    -0.51205    -0.50386
    -0.50094    -0.49723    -0.49610    -0.49212    -0.48927    -0.48411
    -0.48162    -0.48035    -0.47072    -0.46501    -0.45786    -0.44828
    -0.44616    -0.44311    -0.43945    -0.43642    -0.43329    -0.43317
    -0.43021    -0.42906    -0.42832    -0.42439    -0.42136    -0.41591
    -0.41085    -0.40297    -0.38429    -0.38210    -0.35515    -0.34964
    -0.30919    -0.29922    -0.28925    -0.11163    -0.10975    -0.10308
    -0.09849    -0.06894    -0.06093    -0.03264    -0.02870    -0.01696
 
  
  
    Unrestricted Spin Properties ...
    Sz*(Sz+1)      0.750
    <S**2> ...     0.755
  
  
  Peak memory usage:   6753 Mb
  
  end of program scf
   
 Time(scf)  user:     1343.0  user+sys:     1343.0  wallclock:       98.6
  
  start of program der1a
  
  Peak memory usage:   4838 Mb
  
  end of program der1a
   
 Time(der1a)  user:        4.5  user+sys:        4.5  wallclock:        0.6
  
  start of program rwr
  
  Peak memory usage:   4760 Mb
  
  end of program rwr
   
 Time(rwr)  user:       58.8  user+sys:       58.8  wallclock:        9.7
  
  start of program der1b
  
   
  forces (hartrees/bohr) : total     
   
 atom  label           x              y              z
 ---- --------   -------------  -------------  -------------
    1 C1         -4.363766E-03   1.076868E-03   6.012108E-03
    2 C2         -4.203279E-03  -6.778342E-03  -4.946782E-03
    3 C3          3.975353E-03  -6.994773E-04  -5.270339E-03
    4 C4         -5.792513E-03   7.162067E-05   2.006879E-02
    5 C5          1.127375E-03   6.959567E-03   4.941084E-03
    6 C6         -5.864876E-03  -9.675198E-03  -1.916107E-03
    7 C7          1.294640E-02  -1.576678E-03   7.654055E-03
    8 N8         -7.159338E-03   6.537712E-03   1.021409E-03
    9 C9          1.066176E-02  -1.210979E-02  -4.508822E-03
   10 C10         1.215317E-02   6.512978E-03  -3.695871E-03
   11 C11        -2.418457E-03  -3.578737E-04  -3.424573E-03
   12 C12         5.620844E-03  -3.863788E-03   5.282393E-03
   13 C13        -4.982249E-03   4.409391E-03  -7.980435E-03
   14 C14        -5.507491E-03  -3.436767E-03  -1.295184E-02
   15 C15        -6.484106E-03   1.193975E-02  -1.170521E-02
   16 C16         6.498702E-03   5.310929E-03   1.343272E-02
   17 C17         6.137496E-03  -4.353548E-03   8.122891E-03
   18 O18        -9.645657E-03  -3.084767E-03  -1.739578E-02
   19 C19         1.387723E-02   6.430846E-03   2.350950E-02
   20 O20         8.227606E-03  -1.039867E-02   1.753665E-02
   21 C21        -1.226942E-02   1.357737E-02  -2.645436E-02
   22 C22        -4.352940E-02  -2.250000E-02   1.203863E-01
   23 N23         4.972751E-02   2.231587E-02  -1.387716E-01
   24 C24        -1.160471E-03  -5.942142E-03   1.245949E-03
   25 C25         2.300532E-03   1.145698E-02  -4.112270E-03
   26 C26        -3.781470E-03   1.023390E-02   1.047969E-03
   27 C27         1.710510E-02   7.836230E-03  -1.181351E-03
   28 C28        -7.032964E-03  -1.453912E-02   3.028133E-03
   29 C29        -6.723972E-03  -3.923831E-03  -3.295522E-03
   30 O30         5.043343E-03   2.001106E-02   7.154827E-04
   31 C31        -6.443718E-03  -2.819896E-02   1.633235E-04
   32 O32        -1.463146E-02  -1.364220E-02   1.986684E-03
   33 C33         2.219955E-02   1.878261E-02  -3.117943E-03
   34 H34         1.184270E-03  -1.030085E-03  -6.812132E-04
   35 H35        -1.086604E-03   5.990109E-04  -1.473929E-03
   36 H36        -1.785109E-03   9.982578E-04   2.556697E-04
   37 H37         2.797466E-03   3.582894E-03   5.853371E-03
   38 H38        -3.810987E-04   3.823038E-03   1.140154E-03
   39 H39         1.979554E-03  -6.227177E-03   6.132947E-03
   40 H40        -1.837145E-04  -1.641629E-04  -8.762283E-04
   41 H41         2.724237E-03  -4.176220E-03   4.207072E-03
   42 H42         8.805275E-04  -4.645843E-03   2.144430E-03
   43 H43         3.273145E-03  -1.183213E-02  -7.144060E-03
   44 H44        -1.961577E-03   3.272577E-04   1.010715E-03
   45 H45        -7.827143E-04   5.333056E-03  -6.498515E-03
   46 H46        -7.580777E-03   2.712061E-03   1.144894E-03
   47 H47        -2.300713E-03   1.853603E-03   5.906173E-03
   48 H48        -1.656598E-03   7.196229E-03   1.995077E-03
   49 H49        -6.944732E-03  -2.405466E-03  -8.992537E-04
   50 H50        -8.054092E-04  -3.101026E-04  -5.070137E-04
   51 H51        -7.075288E-03   1.578489E-03  -1.856939E-03
   52 H52         4.349207E-04  -3.104034E-04   1.138770E-03
   53 H53         4.835980E-04  -2.844434E-03   3.516239E-03
   54 H54        -2.255600E-04   1.486856E-03   1.796762E-03
   55 H55         3.514884E-03   4.868192E-03   2.641590E-03
   56 H56         9.876550E-04   2.286545E-03  -5.652244E-03
   57 H57        -4.324638E-03   1.083917E-03  -5.597224E-03
   58 H58        -2.762232E-03  -1.092566E-03  -8.215447E-04
   59 H59         1.371642E-03  -2.069759E-03  -4.819172E-05
   60 H60         1.742814E-03  -6.147406E-04   5.457303E-03
   61 H61         7.267781E-05  -1.919608E-03  -2.169052E-03
   62 H62        -1.410704E-03  -1.726524E-03   1.881382E-03
   63 H63        -2.212451E-03  -4.776373E-03   2.076064E-03
   64 H64         1.681488E-03  -5.284799E-03  -3.337714E-04
   65 H65         2.078933E-03   2.124126E-03  -3.881885E-03
   66 H66         3.312016E-03   5.937641E-03   6.028334E-04
   67 H67        -8.217898E-04   2.063431E-03   2.092228E-03
   68 H68        -2.648027E-03  -1.014537E-04  -7.891384E-04
   69 H69        -3.220204E-03  -5.661285E-03   8.607312E-04
   70 H70        -1.301585E-03   1.749796E-03  -1.156987E-03
   71 H71        -1.627318E-03   2.875935E-04   2.132177E-03
 -------------   -------------  -------------  -------------
     total        1.028350E-03   1.081380E-03  -9.739497E-04
   
  Peak memory usage:   6747 Mb
  
  end of program der1b
   
 Time(der1b)  user:      118.8  user+sys:      118.8  wallclock:        8.2
  
  start of program geopt
  
 ----------------------------------------------------------------------------
  Geometry optimization step  1
  Total energy:     -1461.35704391604 hartrees
 ----------------------------------------------------------------------------
  
  
  Level shifts adjusted to satisfy step-size constraints
   Step size:    0.3007206
   Cos(theta):   0.9636149
   Final level shift:  -3.3644709E-01
  
  gradient maximum:        1.4907E-01 .  (  4.5000E-04 )
  gradient rms:            1.4718E-02 .  (  3.0000E-04 )
  displacement maximum:    1.4499E-01 .  (  1.8000E-03 )
  displacement rms:        1.8470E-02 .  (  1.2000E-03 )
  
  predicted energy change:  -4.4561E-02
  step size:     0.27643
  trust radius:  0.30000
  
  molecular structure not yet converged...
  
  center of mass moved by:
     x:    -7.8562E-03     y:     3.2604E-02     z:    -6.3767E-03
  
  new geometry: 
                                   angstroms
  atom               x                 y                 z
  C1            0.8803239319     -0.2805024894      0.0615060243 
  C2            2.4187468791     -0.2203125631      0.0918316387 
  C3            2.9840205145     -0.5275464042     -1.3153588370 
  C4            2.9602285411      1.0794895659      0.8491694563 
  C5            2.4255692823      2.4663622379      0.3208163414 
  C6            2.8298052552      2.7849001022     -1.1218193502 
  C7            2.3454714633      4.1209901768     -1.6743285231 
  N8            2.7602019529      4.2977601719     -3.0917010829 
  C9            2.3061781480      3.2138491590     -3.9813586940 
  C10           2.3130057674      5.6262921777     -3.5663483072 
  C11           2.8047670569      5.9557017063     -4.9813688931 
  C12           2.4029734425      7.3370615233     -5.4386740232 
  C13           1.6739751051      7.4963934260     -6.6338316314 
  C14           1.4040193756      8.7679796345     -7.1283146852 
  C15           1.9256201609      9.9015677619     -6.4913795327 
  C16           2.6312275355      9.7583206870     -5.2643009546 
  C17           2.8092450698      8.4789941527     -4.7334963310 
  O18           3.1119932031     10.9143130698     -4.7010836998 
  C19           3.8934261811     10.8238886870     -3.4950449156 
  O20           1.8242622651     11.1814666362     -6.9722397756 
  C21           1.1896438579     11.3925356011     -8.2465629790 
  C22           2.4598175150      0.9516521210      2.2619135171 
  N23           2.0658757589      0.8521800164      3.3742699293 
  C24           4.5098196744      1.0574520684      0.9647324484 
  C25           5.2836966911      2.2369210274      0.9671080822 
  C26           6.6739289157      2.1909622605      0.8736221131 
  C27           7.3334880420      0.9659938509      0.7518255045 
  C28           6.5864393937     -0.2354025617      0.8525140223 
  C29           5.1977685898     -0.1663643414      1.0300980229 
  O30           7.2999651817     -1.4025093263      0.7369194254 
  C31           6.5940703712     -2.6562659498      0.7515731983 
  O32           8.6820469655      0.8210707532      0.5397453962 
  C33           9.4880543570      2.0053137697      0.4019397106 
  H34           0.5455036064     -1.2107192707     -0.4074396471 
  H35           0.4469186292      0.5470690333     -0.5080958178 
  H36           0.4635550481     -0.2519574640      1.0735289076 
  H37           2.7433030363     -1.0794244414      0.6932567343 
  H38           2.4270128864     -0.0385602720     -2.1148928931 
  H39           2.8753139779     -1.5955419488     -1.5321338435 
  H40           4.0419386121     -0.2711955668     -1.4202876366 
  H41           2.7615574138      3.2770340038      0.9799796534 
  H42           1.3321010288      2.4839377960      0.3882594793 
  H43           2.3398775325      2.0301799423     -1.7148154418 
  H44           3.9070479939      2.7089253838     -1.2941255405 
  H45           2.7745614039      4.9495177671     -1.0970748355 
  H46           1.2494724560      4.1845543895     -1.5810733505 
  H47           2.7714444901      2.2603580000     -3.7261443360 
  H48           2.6314397106      3.3842631733     -5.0098339595 
  H49           1.2119045113      3.1019941709     -3.9736455784 
  H50           2.7110483102      6.3702464161     -2.8669062239 
  H51           1.2139151340      5.7106543559     -3.5288623865 
  H52           2.4028880641      5.2450697774     -5.7079763353 
  H53           3.8991939171      5.8699011084     -5.0231278443 
  H54           1.3312511480      6.6280686144     -7.1873326408 
  H55           0.8140523877      8.8469164085     -8.0340793926 
  H56           3.3103788025      8.3463671675     -3.7823533099 
  H57           4.2519715365     11.8292030451     -3.2684582186 
  H58           4.7651016483     10.1714513584     -3.6244501718 
  H59           3.2773225663     10.4769730300     -2.6577780753 
  H60           1.2886105099     12.4536681954     -8.4801825655 
  H61           0.1239516203     11.1460426212     -8.1938941843 
  H62           1.6785217438     10.8172240987     -9.0407307115 
  H63           4.8262860910      3.2191403997      0.9853773535 
  H64           7.2079115103      3.1326666505      0.8521183391 
  H65           4.6333418507     -1.0781198221      1.1752233442 
  H66           7.3327993954     -3.4422174267      0.5839137809 
  H67           5.8475197338     -2.7079779592     -0.0495899380 
  H68           6.1232781562     -2.8279701889      1.7255510517 
  H69          10.5105924105      1.6775522445      0.2079865772 
  H70           9.4829522781      2.5919603663      1.3271568927 
  H71           9.1550583972      2.6194480435     -0.4428109993 
   
  nuclear repulsion energy.......    3210.398126224 hartrees
  -------------------------------------------------
 /  end of geometry optimization iteration   1   /
 -------------------------------------------------
   
  Peak memory usage:   4729 Mb
  
  end of program geopt
   
 Time(geopt)  user:       13.3  user+sys:       13.3  wallclock:        1.0
  
  start of program onee
  
  smallest eigenvalue of S:    5.490E-04
  number of canonical orbitals.....          373
  Peak memory usage:   4838 Mb
  
  end of program onee
   
 Time(onee)  user:        2.6  user+sys:        2.6  wallclock:        0.6
  
  start of program probe
  
  Peak memory usage:   4756 Mb
  
  end of program probe
   
 Time(probe)  user:        2.7  user+sys:        2.7  wallclock:        0.6
  
  start of program grid
  
   grid     grid set  grid #  grid sym
  ------    --------  ------  --------
  coarse        0        0        1
  medium        2        1        1
  fine          0        0        1
  ultrafine     4        2        1
  charge       -1        3        1
  gradient      4        2        1
  density       0        0        1
  DFT-fine    -11        4        1
  DFT-med.    -10        5        1
  DFT-grad    -12        6        1
  DFT-der2      0        0        1
  DFT-cphf      0        0        1
  LMP2-enrg     4        2        1
  LMP2-grad     2        1        1
  DFT-cphf2     0        0        1
  PBF-dens      0        0        1
  plotting      0        0        1
  Rel-grad    -17        0        1
  
  number of gridpoints: 
     atom        C1       C2       C3       C4       C5       C6       C7
  grid # 1       77       92       79       96       86       84       86
  grid # 2      272      324      266      350      292      279      285
  grid # 3        6        6        6        6        6        6        6
  grid # 4     4304     4304     4304     4304     4304     4304     4304
  grid # 5     1192     1192     1192     1192     1192     1192     1192
  grid # 6     5226     5226     5226     5226     5226     5226     5226
   
  number of gridpoints: 
     atom        N8       C9      C10      C11      C12      C13      C14
  grid # 1      108       78       85       86      100       97       97
  grid # 2      389      264      286      284      362      337      335
  grid # 3      119        6        6        6      102      208      209
  grid # 4     4304     4304     4304     4304     4304     4304     4304
  grid # 5     1192     1192     1192     1192     1192     1192     1192
  grid # 6     5226     5226     5226     5226     5226     5226     5226
   
  number of gridpoints: 
     atom       C15      C16      C17      O18      C19      O20      C21
  grid # 1      100      100       97      116       78      116       77
  grid # 2      355      354      337      451      262      451      264
  grid # 3      224      223      177      523        6      521        6
  grid # 4     4304     4304     4304     4304     4304     4304     4304
  grid # 5     1192     1192     1192     1192     1192     1192     1192
  grid # 6     5226     5226     5226     5226     5226     5226     5226
   
  number of gridpoints: 
     atom       C22      N23      C24      C25      C26      C27      C28
  grid # 1      102      123      100       95       95      101       98
  grid # 2      389      510      364      332      334      354      356
  grid # 3      103     1572       59      130      189      201      179
  grid # 4     4304     4304     4304     4304     4304     4304     4304
  grid # 5     1192     1192     1192     1192     1192     1192     1192
  grid # 6     5226     5226     5226     5226     5226     5226     5226
   
  number of gridpoints: 
     atom       C29      O30      C31      O32      C33      H34      H35
  grid # 1       96      116       77      116       77      110      103
  grid # 2      332      450      263      449      264      439      422
  grid # 3      117      516        6      520        6      971      598
  grid # 4     4304     4304     4304     4304     4304     4304     4304
  grid # 5     1192     1192     1192     1192     1192     1192     1192
  grid # 6     5226     5226     5226     5226     5226     5226     5226
   
  number of gridpoints: 
     atom       H36      H37      H38      H39      H40      H41      H42
  grid # 1      108      103      105      107      105      106      106
  grid # 2      431      410      414      430      422      413      414
  grid # 3      819      399      471      843      558      531      497
  grid # 4     4304     4304     4304     4304     4304     4304     4304
  grid # 5     1192     1192     1192     1192     1192     1192     1192
  grid # 6     5226     5226     5226     5226     5226     5226     5226
   
  number of gridpoints: 
     atom       H43      H44      H45      H46      H47      H48      H49
  grid # 1       98      105      105      110      106      105      107
  grid # 2      392      420      428      426      420      421      436
  grid # 3       92      422      649      607      558      683      831
  grid # 4     4304     4304     4304     4304     4304     4304     4304
  grid # 5     1192     1192     1192     1192     1192     1192     1192
  grid # 6     5226     5226     5226     5226     5226     5226     5226
   
  number of gridpoints: 
     atom       H50      H51      H52      H53      H54      H55      H56
  grid # 1      101      108      103      109      115      112      107
  grid # 2      418      430      409      440      441      430      414
  grid # 3      427      707      391      939     1069      803      371
  grid # 4     4304     4304     4304     4304     4304     4304     4304
  grid # 5     1192     1192     1192     1192     1192     1192     1192
  grid # 6     5226     5226     5226     5226     5226     5226     5226
   
  number of gridpoints: 
     atom       H57      H58      H59      H60      H61      H62      H63
  grid # 1      112      110      110      112      110      110      109
  grid # 2      448      434      434      447      434      433      420
  grid # 3     1297      997     1026     1300     1039     1015      596
  grid # 4     4304     4304     4304     4304     4304     4304     4304
  grid # 5     1192     1192     1192     1192     1192     1192     1192
  grid # 6     5226     5226     5226     5226     5226     5226     5226
   
  number of gridpoints: 
     atom       H64      H65      H66      H67      H68      H69      H70
  grid # 1      112      103      113      109      110      113      110
  grid # 2      430      406      446      428      434      446      434
  grid # 3      781      294     1301      770     1020     1302     1024
  grid # 4     4304     4304     4304     4304     4304     4304     4304
  grid # 5     1192     1192     1192     1192     1192     1192     1192
  grid # 6     5226     5226     5226     5226     5226     5226     5226
   
  number of gridpoints: 
     atom       H71    total
  grid # 1      110     7228
  grid # 2      433    27423
  grid # 3     1019    34993
  grid # 4     4304   305584
  grid # 5     1192    84632
  grid # 6     5226   371046
   
  Peak memory usage:   4785 Mb
  
  end of program grid
   
 Time(grid)  user:       47.8  user+sys:       47.8  wallclock:        3.7
  
  start of program rwr
  
  Peak memory usage:   4748 Mb
  
  end of program rwr
   
 Time(rwr)  user:       73.1  user+sys:       73.1  wallclock:        8.0
  
  start of program scf
  
 Energy computed with NOPS off.
  
       i  u  d  i  g                   
       t  p  i  c  r                                 RMS    maximum
       e  d  i  u  i                       energy  density   DIIS  
       r  t  s  t  d       total energy    change  change    error 
  
etot    1  N  N  2  U   -1461.34005309467           8.5E-04  1.1E-02
etot    2  Y  Y  6  M   -1461.39210011280  5.2E-02  4.4E-04  3.6E-03
etot    3  N  Y  2  U   -1461.38865337022 -3.4E-03  1.1E-03  1.6E-02
etot    4  Y  Y  6  M   -1461.36664754372 -2.2E-02  9.5E-04  2.9E-02
etot    5  N  Y  2  U   -1461.39237851714  2.6E-02  2.0E-04  5.4E-03
etot    6  Y  Y  6  M   -1461.39330717562  9.3E-04  5.4E-05  9.4E-04
etot    7  Y  Y  6  M   -1461.39335131408  4.4E-05  1.0E-05  6.3E-04
etot    8  N  Y  2  U   -1461.39333301666 -1.8E-05  9.3E-06  7.6E-04
etot    9  N  Y  2  U   -1461.39333899312  6.0E-06  4.2E-06  3.2E-04
etot   10  N  N  2  U   -1461.39334056506  1.6E-06  0.0E+00  0.0E+00
  
  
 Energy components, in hartrees:
   (A)  Nuclear repulsion............    3210.39812622351
   (E)  Total one-electron terms.....   -8342.26382729278
   (I)  Total two-electron terms.....    3670.47236050421
   (L)  Electronic energy............   -4671.79146678857  (E+I)
   (N)  Total energy.................   -1461.39334056506  (A+L)
   (O)  Gas phase energy.............   -1461.39334056506
  
                                 Total             Coulomb       Exchange+Corr.
 Total two-electron terms    3670.47236050421    3879.03294700927    -208.56058650506
   Hamiltonian  1........    1872.99575032976    1947.18247540153     -74.18672507176
   Hamiltonian  2........    1858.13246662721    1931.85047160774     -73.71800498054
  
 SCFE: SCF energy: UDFT(b3lyp)     -1461.39334056506 hartrees   iterations:  10
  
 
 Alpha HOMO energy:    -0.31762
 Alpha LUMO energy:    -0.11492
 
  Alpha Orbital energies (hartrees): 
   -19.29790   -19.29578   -19.29246   -19.29065   -14.43700   -14.42183
   -10.37651   -10.37604   -10.37170   -10.37107   -10.34322   -10.33632
   -10.33328   -10.33186   -10.33035   -10.32027   -10.31727   -10.31004
   -10.30571   -10.30475   -10.30455   -10.30410   -10.30360   -10.30093
   -10.30058   -10.29907   -10.29420   -10.29344   -10.28803   -10.28777
   -10.27125   -10.25987   -10.25247    -1.19622    -1.19100    -1.17662
    -1.17142    -1.02769    -0.99738    -0.98035    -0.97749    -0.93182
    -0.90594    -0.88131    -0.87888    -0.87408    -0.86517    -0.84760
    -0.83270    -0.81637    -0.81293    -0.80765    -0.79770    -0.78688
    -0.77207    -0.75287    -0.72394    -0.71985    -0.71054    -0.69766
    -0.68836    -0.67793    -0.66150    -0.64975    -0.64923    -0.62168
    -0.61622    -0.61422    -0.61266    -0.59632    -0.59224    -0.58552
    -0.58131    -0.58112    -0.58003    -0.56849    -0.56422    -0.56350
    -0.56011    -0.55722    -0.55005    -0.54349    -0.53921    -0.53440
    -0.53156    -0.52508    -0.52007    -0.51665    -0.51216    -0.50511
    -0.49900    -0.49819    -0.49501    -0.48994    -0.48610    -0.48185
    -0.48020    -0.47756    -0.46988    -0.46551    -0.45787    -0.44796
    -0.44567    -0.44142    -0.44027    -0.43915    -0.43619    -0.43521
    -0.43292    -0.42926    -0.42708    -0.42504    -0.42324    -0.42255
    -0.41258    -0.40891    -0.39554    -0.39237    -0.35576    -0.35084
    -0.32549    -0.32199    -0.31762    -0.11492    -0.11303    -0.10973
    -0.10800    -0.04476    -0.04176    -0.03127    -0.02691    -0.01728
    -0.01073
 
 
 Beta HOMO energy:    -0.29481
 Beta LUMO energy:    -0.28494
 
  Beta Orbital energies (hartrees): 
   -19.29488   -19.29346   -19.28995   -19.28834   -14.43523   -14.42173
   -10.37505   -10.37473   -10.37054   -10.36982   -10.34328   -10.33641
   -10.33339   -10.33195   -10.33043   -10.31916   -10.31592   -10.30998
   -10.30564   -10.30461   -10.30406   -10.30349   -10.30310   -10.30145
   -10.30088   -10.29947   -10.29416   -10.29347   -10.28809   -10.28776
   -10.27119   -10.25987   -10.25248    -1.19078    -1.18613    -1.17123
    -1.16651    -1.02500    -0.99688    -0.97715    -0.97519    -0.93081
    -0.90327    -0.88036    -0.87624    -0.87285    -0.86449    -0.84691
    -0.83221    -0.81557    -0.81222    -0.80637    -0.79571    -0.78538
    -0.77172    -0.75168    -0.72253    -0.71855    -0.70880    -0.69571
    -0.68733    -0.67673    -0.66118    -0.64826    -0.64802    -0.62030
    -0.61489    -0.61265    -0.61165    -0.59556    -0.59116    -0.58068
    -0.58008    -0.57720    -0.57397    -0.56416    -0.56242    -0.56066
    -0.55891    -0.55637    -0.54890    -0.54211    -0.53844    -0.53374
    -0.53078    -0.52412    -0.51940    -0.51621    -0.51137    -0.50036
    -0.49780    -0.49513    -0.49346    -0.48871    -0.48529    -0.48065
    -0.47873    -0.47652    -0.46955    -0.46503    -0.45686    -0.44683
    -0.44450    -0.43991    -0.43711    -0.43445    -0.43086    -0.43072
    -0.42864    -0.42683    -0.42439    -0.42181    -0.42096    -0.41371
    -0.40991    -0.40830    -0.39399    -0.39199    -0.35136    -0.34678
    -0.30435    -0.29481    -0.28494    -0.10747    -0.10653    -0.10043
    -0.09787    -0.04455    -0.04083    -0.03005    -0.02594    -0.01613
 
  
  
    Unrestricted Spin Properties ...
    Sz*(Sz+1)      0.750
    <S**2> ...     0.755
  
  
  Peak memory usage:   6753 Mb
  
  end of program scf
   
 Time(scf)  user:      367.9  user+sys:      367.9  wallclock:       27.4
  
  start of program der1a
  
  Peak memory usage:   4838 Mb
  
  end of program der1a
   
 Time(der1a)  user:        3.8  user+sys:        3.8  wallclock:        0.6
  
  start of program rwr
  
  Peak memory usage:   4760 Mb
  
  end of program rwr
   
 Time(rwr)  user:       56.7  user+sys:       56.7  wallclock:        9.3
  
  start of program der1b
  
   
  forces (hartrees/bohr) : total     
   
 atom  label           x              y              z
 ---- --------   -------------  -------------  -------------
    1 C1         -1.448520E-03   1.943177E-03   4.205893E-03
    2 C2         -3.486940E-03  -5.421428E-03  -5.545556E-03
    3 C3          1.984991E-03   3.462255E-03  -4.167251E-03
    4 C4         -2.085196E-03  -5.821549E-04   1.804870E-02
    5 C5          2.477700E-03   4.774155E-03  -6.913935E-04
    6 C6         -4.091925E-03  -5.631630E-03  -3.455143E-03
    7 C7          8.197039E-03   3.573254E-04   1.830770E-03
    8 N8         -8.063622E-03   3.235305E-03   4.365739E-04
    9 C9          7.170273E-03  -5.775757E-03  -4.444592E-03
   10 C10         6.898305E-03   1.890073E-03  -1.174512E-03
   11 C11        -1.923946E-03   1.781690E-03  -1.388611E-03
   12 C12         1.731509E-03   3.457317E-05   1.803418E-03
   13 C13        -1.421739E-03   4.383535E-03  -1.218896E-03
   14 C14        -1.396753E-03  -3.013591E-03  -6.624449E-03
   15 C15        -4.058718E-03   1.066532E-02  -7.092830E-03
   16 C16         3.252502E-03   1.955593E-03   7.851368E-03
   17 C17         4.679687E-03  -1.749714E-03   2.075865E-03
   18 O18        -6.781180E-03  -5.467495E-03  -1.038848E-02
   19 C19         8.499407E-03   2.374794E-03   1.426438E-02
   20 O20         4.402861E-03  -8.492611E-03   9.931470E-03
   21 C21        -8.094833E-03   7.019281E-03  -1.483729E-02
   22 C22        -6.419914E-03  -3.452908E-04   1.437393E-02
   23 N23         8.401585E-03   2.028738E-03  -2.343661E-02
   24 C24         2.234613E-03  -2.113365E-03  -2.402123E-03
   25 C25         1.513197E-03   3.819660E-03  -4.737800E-03
   26 C26        -2.870799E-03   4.324545E-03  -7.182305E-04
   27 C27         1.407196E-02   3.405931E-03   9.431457E-06
   28 C28        -4.492876E-03  -8.583304E-03   3.031707E-03
   29 C29        -8.866810E-04  -2.524360E-03  -3.628490E-03
   30 O30         1.063753E-03   1.345775E-02   5.680733E-04
   31 C31        -5.012046E-03  -1.657741E-02   1.410813E-03
   32 O32        -1.114509E-02  -6.077248E-03   1.557675E-03
   33 C33         1.244885E-02   1.168208E-02  -1.138329E-03
   34 H34         9.125655E-04  -7.084749E-04  -3.361261E-04
   35 H35        -3.444125E-05   7.968321E-04  -1.489430E-03
   36 H36        -9.322593E-04   3.260675E-04  -3.509263E-04
   37 H37        -1.609051E-03   4.042300E-03   5.704647E-03
   38 H38        -9.095218E-04   6.177324E-03  -8.164646E-04
   39 H39         1.129072E-03  -2.053723E-03   3.826672E-03
   40 H40        -2.870198E-04   7.169810E-05  -3.650712E-04
   41 H41         5.243420E-04  -3.734127E-03   4.072035E-03
   42 H42         1.951073E-04  -3.438636E-03   1.575632E-03
   43 H43         1.542809E-03  -1.003303E-02  -8.315170E-03
   44 H44         7.647515E-04  -1.171644E-03   1.962590E-03
   45 H45        -8.086954E-04   1.172989E-03  -9.399082E-04
   46 H46        -4.113314E-03   7.195420E-04   6.959141E-04
   47 H47        -1.942065E-03   4.146701E-04   5.434682E-03
   48 H48        -1.576753E-03   4.356969E-03   1.238173E-03
   49 H49        -3.342640E-03  -1.784232E-03  -2.574642E-04
   50 H50        -3.618197E-04  -2.968970E-04   5.949962E-04
   51 H51        -3.479547E-03   2.810638E-04  -3.982446E-04
   52 H52         4.633105E-04  -1.134948E-03   8.696220E-04
   53 H53         2.764109E-04  -2.083055E-03   2.207275E-03
   54 H54        -1.293155E-04   7.680714E-05   1.517422E-03
   55 H55         2.091314E-03   3.494399E-03   5.111357E-04
   56 H56         2.225793E-03   1.944705E-03  -1.681957E-03
   57 H57        -3.234486E-03   3.402805E-04  -3.882619E-03
   58 H58        -1.875368E-03  -1.162025E-03  -1.079258E-03
   59 H59         4.248171E-04  -1.359112E-03  -6.051332E-04
   60 H60         1.685731E-03  -7.445551E-04   4.246375E-03
   61 H61         2.434498E-04  -1.523937E-03  -4.792766E-04
   62 H62        -2.734755E-04  -1.555744E-03   1.655568E-03
   63 H63        -1.791124E-03  -2.564509E-03   1.048315E-03
   64 H64         2.706840E-03  -2.567846E-03  -8.087472E-05
   65 H65         2.650701E-03   1.318452E-04  -3.350368E-03
   66 H66         2.202983E-03   4.474335E-03   2.360879E-04
   67 H67        -4.209032E-04   2.018018E-03   1.004031E-03
   68 H68        -1.339775E-03   7.197581E-04  -4.577437E-04
   69 H69        -2.770844E-03  -3.960459E-03   5.815844E-04
   70 H70        -1.404050E-03   5.822215E-04  -4.919054E-04
   71 H71        -1.669940E-03  -1.641950E-04   1.134101E-03
 -------------   -------------  -------------  -------------
     total        1.081043E-03   3.411004E-04  -9.516075E-04
   
  Peak memory usage:   6747 Mb
  
  end of program der1b
   
 Time(der1b)  user:      117.9  user+sys:      117.9  wallclock:        8.0
  
  start of program geopt
  
 ----------------------------------------------------------------------------
  Geometry optimization step  2
  Total energy:     -1461.39334056506 hartrees
 ----------------------------------------------------------------------------
  
  
  Level shifts adjusted to satisfy step-size constraints
   Step size:    0.3004349
   Cos(theta):   0.8835711
   Final level shift:  -8.1554687E-02
  
  energy change:          -3.6297E-02 .  (  5.0000E-05 )
  gradient maximum:        2.4953E-02 .  (  4.5000E-04 )
  gradient rms:            5.4355E-03 .  (  3.0000E-04 )
  displacement maximum:    7.2922E-02 .  (  1.8000E-03 )
  displacement rms:        2.0073E-02 .  (  1.2000E-03 )
  
  predicted energy change:  -1.4478E-02
  step size:     0.30042
  trust radius:  0.30000
  
  molecular structure not yet converged...
  
  center of mass moved by:
     x:     1.5860E-02     y:    -3.9491E-04     z:    -7.3716E-04
  
  new geometry: 
                                   angstroms
  atom               x                 y                 z
  C1            0.8397235183     -0.2401541358      0.0780567007 
  C2            2.3820091917     -0.2457659542      0.0645219958 
  C3            2.9048127373     -0.4631176207     -1.3762713426 
  C4            2.9683353242      1.0194554653      0.8180105599 
  C5            2.4154680605      2.3645710313      0.2495985966 
  C6            2.7839008772      2.6275609917     -1.2255364402 
  C7            2.2741389025      3.9832578539     -1.7475651505 
  N8            2.6151462616      4.2140550272     -3.1772357851 
  C9            2.1371304354      3.1402634177     -4.0685214458 
  C10           2.2184073369      5.5840358585     -3.6088237699 
  C11           2.6932118575      5.9375916200     -5.0306578632 
  C12           2.3640976618      7.3595600080     -5.4606607044 
  C13           1.5900867294      7.5769372974     -6.6303441797 
  C14           1.3544201822      8.8616642678     -7.1183975096 
  C15           1.9392183538      9.9655710860     -6.4883321110 
  C16           2.6994404133      9.7716988545     -5.2865652096 
  C17           2.8689628975      8.4790639492     -4.7761780480 
  O18           3.2159871742     10.9086916445     -4.7371906349 
  C19           4.0540387983     10.8291768029     -3.5513201477 
  O20           1.8507658011     11.2538073643     -6.9282588338 
  C21           1.1432734273     11.5599073006     -8.1648535070 
  C22           2.4794095394      0.9256364284      2.2200159254 
  N23           2.1018202165      0.8534487685      3.3076482649 
  C24           4.5283665549      1.0136317025      0.9109308307 
  C25           5.2774235718      2.2153821676      0.8708176208 
  C26           6.6740803472      2.2065923752      0.8223144692 
  C27           7.3696942183      0.9946548214      0.7982558303 
  C28           6.6378377113     -0.2268937026      0.9321511040 
  C29           5.2435289904     -0.1920574797      1.0340837547 
  O30           7.3916409371     -1.3651194081      0.9437792763 
  C31           6.7501136070     -2.6681688646      1.0313055110 
  O32           8.7229742506      0.8622724755      0.6673664909 
  C33           9.5591087928      2.0441485471      0.5209932067 
  H34           0.4614228133     -1.1354966811     -0.4259884583 
  H35           0.4311269458      0.6283310349     -0.4516490233 
  H36           0.4420000129     -0.2363908581      1.0982262782 
  H37           2.6944093798     -1.1064940198      0.6686238694 
  H38           2.3586380948      0.1417618628     -2.1092171609 
  H39           2.7319020279     -1.5093341453     -1.6567915602 
  H40           3.9736977873     -0.2610586004     -1.4847467656 
  H41           2.7584172167      3.1831478376      0.8948991854 
  H42           1.3244306963      2.3450865132      0.3462435828 
  H43           2.3383934699      1.8230538732     -1.8175563190 
  H44           3.8656814651      2.5915589010     -1.3872839788 
  H45           2.7255976766      4.8106276000     -1.1856883249 
  H46           1.1777667631      4.0501051184     -1.5999836487 
  H47           2.6290491762      2.1964314072     -3.8271360907 
  H48           2.4154759221      3.3590540404     -5.1000250867 
  H49           1.0411839836      3.0034542202     -4.0225642483 
  H50           2.6702720581      6.2860938786     -2.8987431574 
  H51           1.1204808796      5.7209709621     -3.5438786546 
  H52           2.2368559678      5.2650161914     -5.7613239651 
  H53           3.7794092479      5.7792875961     -5.0864811944 
  H54           1.1751552775      6.7297500913     -7.1645973222 
  H55           0.7451531342      8.9908631097     -8.0030673583 
  H56           3.4325480395      8.3308618950     -3.8642355858 
  H57           4.3980925573     11.8469685783     -3.3750603528 
  H58           4.9155315275     10.1742271928     -3.7211773620 
  H59           3.4775969082     10.4797477942     -2.6878179061 
  H60           1.2904583003     12.6269397824     -8.3234710555 
  H61           0.0734628220     11.3471560789     -8.0655937078 
  H62           1.5635738150     11.0000490233     -9.0068302473 
  H63           4.7798510998      3.1753196502      0.8540264318 
  H64           7.2027275068      3.1484377878      0.7673152667 
  H65           4.7107678114     -1.1181133527      1.1867459092 
  H66           7.5604040670     -3.3919454786      0.9590862997 
  H67           6.0467139112     -2.8167926520      0.2047792965 
  H68           6.2360213219     -2.7899246715      1.9909520528 
  H69          10.5733559790      1.6660074639      0.4030479684 
  H70           9.5048882533      2.6758545491      1.4142341310 
  H71           9.2735981987      2.6200735575     -0.3660851546 
   
  nuclear repulsion energy.......    3198.338155145 hartrees
  -------------------------------------------------
 /  end of geometry optimization iteration   2   /
 -------------------------------------------------
   
  Peak memory usage:   4730 Mb
  
  end of program geopt
   
 Time(geopt)  user:       11.5  user+sys:       11.5  wallclock:        1.0
  
  start of program onee
  
  smallest eigenvalue of S:    5.515E-04
  number of canonical orbitals.....          373
  Peak memory usage:   4838 Mb
  
  end of program onee
   
 Time(onee)  user:        2.5  user+sys:        2.5  wallclock:        0.6
  
  start of program probe
  
  Peak memory usage:   4756 Mb
  
  end of program probe
   
 Time(probe)  user:        4.3  user+sys:        4.3  wallclock:        0.6
  
  start of program grid
  
   grid     grid set  grid #  grid sym
  ------    --------  ------  --------
  coarse        0        0        1
  medium        2        1        1
  fine          0        0        1
  ultrafine     4        2        1
  charge       -1        3        1
  gradient      4        2        1
  density       0        0        1
  DFT-fine    -11        4        1
  DFT-med.    -10        5        1
  DFT-grad    -12        6        1
  DFT-der2      0        0        1
  DFT-cphf      0        0        1
  LMP2-enrg     4        2        1
  LMP2-grad     2        1        1
  DFT-cphf2     0        0        1
  PBF-dens      0        0        1
  plotting      0        0        1
  Rel-grad    -17        0        1
  
  number of gridpoints: 
     atom        C1       C2       C3       C4       C5       C6       C7
  grid # 1       77       91       79       96       86       86       85
  grid # 2      269      320      266      347      290      293      291
  grid # 3        6        6        6        6        6        6        6
  grid # 4     4304     4304     4304     4304     4304     4304     4304
  grid # 5     1192     1192     1192     1192     1192     1192     1192
  grid # 6     5226     5226     5226     5226     5226     5226     5226
   
  number of gridpoints: 
     atom        N8       C9      C10      C11      C12      C13      C14
  grid # 1      106       78       85       86       98       97       97
  grid # 2      393      259      288      289      360      338      334
  grid # 3      113        6        6        6      110      208      215
  grid # 4     4304     4304     4304     4304     4304     4304     4304
  grid # 5     1192     1192     1192     1192     1192     1192     1192
  grid # 6     5226     5226     5226     5226     5226     5226     5226
   
  number of gridpoints: 
     atom       C15      C16      C17      O18      C19      O20      C21
  grid # 1       99      101       97      113       77      113       78
  grid # 2      358      357      336      450      263      450      259
  grid # 3      223      225      188      495        6      498        6
  grid # 4     4304     4304     4304     4304     4304     4304     4304
  grid # 5     1192     1192     1192     1192     1192     1192     1192
  grid # 6     5226     5226     5226     5226     5226     5226     5226
   
  number of gridpoints: 
     atom       C22      N23      C24      C25      C26      C27      C28
  grid # 1      103      123      100       96       96      101      100
  grid # 2      386      500      364      334      335      355      356
  grid # 3      102     1557       62      130      195      207      191
  grid # 4     4304     4304     4304     4304     4304     4304     4304
  grid # 5     1192     1192     1192     1192     1192     1192     1192
  grid # 6     5226     5226     5226     5226     5226     5226     5226
   
  number of gridpoints: 
     atom       C29      O30      C31      O32      C33      H34      H35
  grid # 1       96      113       79      113       78      109      103
  grid # 2      332      450      258      449      259      439      414
  grid # 3      115      497        6      497        6      975      561
  grid # 4     4304     4304     4304     4304     4304     4304     4304
  grid # 5     1192     1192     1192     1192     1192     1192     1192
  grid # 6     5226     5226     5226     5226     5226     5226     5226
   
  number of gridpoints: 
     atom       H36      H37      H38      H39      H40      H41      H42
  grid # 1      108      104      104      107      105      106      105
  grid # 2      431      414      402      435      425      411      410
  grid # 3      819      441      373      922      587      523      446
  grid # 4     4304     4304     4304     4304     4304     4304     4304
  grid # 5     1192     1192     1192     1192     1192     1192     1192
  grid # 6     5226     5226     5226     5226     5226     5226     5226
   
  number of gridpoints: 
     atom       H43      H44      H45      H46      H47      H48      H49
  grid # 1       96      105      106      108      105      104      108
  grid # 2      384      418      426      427      420      420      439
  grid # 3       67      419      617      615      571      679      869
  grid # 4     4304     4304     4304     4304     4304     4304     4304
  grid # 5     1192     1192     1192     1192     1192     1192     1192
  grid # 6     5226     5226     5226     5226     5226     5226     5226
   
  number of gridpoints: 
     atom       H50      H51      H52      H53      H54      H55      H56
  grid # 1      104      110      102      109      115      112      109
  grid # 2      419      435      412      438      441      433      418
  grid # 3      456      746      404      931     1057      820      412
  grid # 4     4304     4304     4304     4304     4304     4304     4304
  grid # 5     1192     1192     1192     1192     1192     1192     1192
  grid # 6     5226     5226     5226     5226     5226     5226     5226
   
  number of gridpoints: 
     atom       H57      H58      H59      H60      H61      H62      H63
  grid # 1      111      111      111      111      111      111      109
  grid # 2      448      435      437      448      437      435      420
  grid # 3     1300     1015     1048     1301     1064     1028      580
  grid # 4     4304     4304     4304     4304     4304     4304     4304
  grid # 5     1192     1192     1192     1192     1192     1192     1192
  grid # 6     5226     5226     5226     5226     5226     5226     5226
   
  number of gridpoints: 
     atom       H64      H65      H66      H67      H68      H69      H70
  grid # 1      113      104      111      110      111      111      111
  grid # 2      432      408      447      431      436      448      437
  grid # 3      803      309     1298      862     1045     1299     1046
  grid # 4     4304     4304     4304     4304     4304     4304     4304
  grid # 5     1192     1192     1192     1192     1192     1192     1192
  grid # 6     5226     5226     5226     5226     5226     5226     5226
   
  number of gridpoints: 
     atom       H71    total
  grid # 1      111     7224
  grid # 2      435    27433
  grid # 3     1035    35255
  grid # 4     4304   305584
  grid # 5     1192    84632
  grid # 6     5226   371046
   
  Peak memory usage:   4785 Mb
  
  end of program grid
   
 Time(grid)  user:       44.6  user+sys:       44.6  wallclock:        3.9
  
  start of program rwr
  
  Peak memory usage:   4751 Mb
  
  end of program rwr
   
 Time(rwr)  user:       75.0  user+sys:       75.0  wallclock:        8.3
  
  start of program scf
  
 Energy computed with NOPS off.
  
       i  u  d  i  g                   
       t  p  i  c  r                                 RMS    maximum
       e  d  i  u  i                       energy  density   DIIS  
       r  t  s  t  d       total energy    change  change    error 
  
etot    1  N  N  2  U   -1461.35997022913           7.3E-04  1.1E-02
etot    2  Y  Y  6  M   -1461.40010501367  4.0E-02  1.2E-03  5.2E-03
etot    3  N  Y  2  U   -1461.36124611950 -3.9E-02  1.5E-03  3.3E-02
etot    4  N  Y  2  U   -1461.39061296992  2.9E-02  5.5E-04  2.5E-02
etot    5  Y  Y  6  M   -1461.40052150756  9.9E-03  2.0E-04  5.2E-03
etot    6  N  Y  2  U   -1461.40092350866  4.0E-04  8.0E-05  4.4E-03
etot    7  Y  Y  6  M   -1461.40115474406  2.3E-04  2.7E-05  1.4E-03
etot    8  N  Y  2  U   -1461.40120365609  4.9E-05  8.0E-06  2.3E-04
etot    9  N  Y  2  U   -1461.40120601733  2.4E-06  5.2E-06  2.5E-04
etot   10  N  Y  2  U   -1461.40120662975  6.1E-07  3.5E-06  1.9E-04
etot   11  N  N  2  U   -1461.40120779943  1.2E-06  0.0E+00  0.0E+00
  
  
 Energy components, in hartrees:
   (A)  Nuclear repulsion............    3198.33815514497
   (E)  Total one-electron terms.....   -8318.55757692317
   (I)  Total two-electron terms.....    3658.81821397877
   (L)  Electronic energy............   -4659.73936294440  (E+I)
   (N)  Total energy.................   -1461.40120779943  (A+L)
   (O)  Gas phase energy.............   -1461.40120779943
  
                                 Total             Coulomb       Exchange+Corr.
 Total two-electron terms    3658.81821397877    3867.35537979744    -208.53716581867
   Hamiltonian  1........    1867.15658385127    1941.33434455150     -74.17776070023
   Hamiltonian  2........    1852.31118213509    1926.02103524594     -73.70985311085
  
 SCFE: SCF energy: UDFT(b3lyp)     -1461.40120779943 hartrees   iterations:  11
  
 
 Alpha HOMO energy:    -0.31636
 Alpha LUMO energy:    -0.11137
 
  Alpha Orbital energies (hartrees): 
   -19.29470   -19.29393   -19.28922   -19.28733   -14.43909   -14.41428
   -10.37528   -10.37447   -10.36907   -10.36870   -10.33720   -10.33627
   -10.33431   -10.33221   -10.33020   -10.31800   -10.31777   -10.31257
   -10.30596   -10.30389   -10.30161   -10.30146   -10.30058   -10.29835
   -10.29745   -10.29661   -10.29452   -10.29176   -10.28958   -10.28460
   -10.27379   -10.25956   -10.25246    -1.19284    -1.18666    -1.17233
    -1.16621    -1.02383    -1.00725    -0.97460    -0.97400    -0.93269
    -0.90131    -0.87599    -0.87525    -0.87093    -0.86303    -0.84657
    -0.83142    -0.81673    -0.81239    -0.80637    -0.79544    -0.78646
    -0.77125    -0.75024    -0.72122    -0.71679    -0.70907    -0.69508
    -0.68693    -0.67547    -0.66155    -0.64617    -0.64571    -0.61937
    -0.61416    -0.61179    -0.60978    -0.59667    -0.58864    -0.58238
    -0.57920    -0.57871    -0.57643    -0.56542    -0.56269    -0.56035
    -0.55841    -0.55659    -0.54689    -0.54123    -0.53703    -0.53395
    -0.53214    -0.52313    -0.51817    -0.51642    -0.50994    -0.50408
    -0.49791    -0.49640    -0.49380    -0.49039    -0.48421    -0.48137
    -0.47804    -0.47713    -0.47080    -0.46321    -0.45788    -0.44893
    -0.44561    -0.44158    -0.44071    -0.43706    -0.43555    -0.43513
    -0.43129    -0.42869    -0.42533    -0.42476    -0.42178    -0.42139
    -0.41131    -0.41023    -0.39846    -0.39150    -0.35394    -0.34905
    -0.32117    -0.31760    -0.31636    -0.11137    -0.11090    -0.10811
    -0.10434    -0.03588    -0.03357    -0.03033    -0.02062    -0.01651
    -0.00694
 
 
 Beta HOMO energy:    -0.29109
 Beta LUMO energy:    -0.28102
 
  Beta Orbital energies (hartrees): 
   -19.29186   -19.29158   -19.28685   -19.28508   -14.43686   -14.41420
   -10.37404   -10.37298   -10.36793   -10.36751   -10.33728   -10.33632
   -10.33441   -10.33230   -10.33028   -10.31694   -10.31649   -10.31253
   -10.30602   -10.30280   -10.30174   -10.30107   -10.30064   -10.29865
   -10.29739   -10.29698   -10.29456   -10.29173   -10.28964   -10.28460
   -10.27372   -10.25956   -10.25246    -1.18762    -1.18199    -1.16699
    -1.16147    -1.02039    -1.00700    -0.97182    -0.97133    -0.93175
    -0.89882    -0.87495    -0.87271    -0.86976    -0.86230    -0.84589
    -0.83093    -0.81600    -0.81175    -0.80500    -0.79345    -0.78506
    -0.77078    -0.74902    -0.71979    -0.71549    -0.70742    -0.69314
    -0.68581    -0.67400    -0.66123    -0.64473    -0.64455    -0.61798
    -0.61286    -0.61027    -0.60884    -0.59599    -0.58752    -0.57874
    -0.57732    -0.57459    -0.57031    -0.56233    -0.56062    -0.55824
    -0.55610    -0.55571    -0.54570    -0.53973    -0.53640    -0.53338
    -0.53117    -0.52225    -0.51761    -0.51594    -0.50914    -0.49908
    -0.49657    -0.49334    -0.49264    -0.48943    -0.48292    -0.47993
    -0.47712    -0.47602    -0.47051    -0.46254    -0.45682    -0.44811
    -0.44442    -0.43971    -0.43486    -0.43372    -0.43169    -0.43058
    -0.42768    -0.42671    -0.42285    -0.42115    -0.41964    -0.41271
    -0.41007    -0.40827    -0.39663    -0.39131    -0.34954    -0.34501
    -0.30000    -0.29109    -0.28102    -0.10346    -0.10319    -0.09766
    -0.09723    -0.03537    -0.03303    -0.02902    -0.01980    -0.01545
 
  
  
    Unrestricted Spin Properties ...
    Sz*(Sz+1)      0.750
    <S**2> ...     0.755
  
  
  Peak memory usage:   6753 Mb
  
  end of program scf
   
 Time(scf)  user:      433.8  user+sys:      433.8  wallclock:       31.7
  
  start of program der1a
  
  Peak memory usage:   4838 Mb
  
  end of program der1a
   
 Time(der1a)  user:        2.8  user+sys:        2.8  wallclock:        0.6
  
  start of program rwr
  
  Peak memory usage:   4758 Mb
  
  end of program rwr
   
 Time(rwr)  user:       55.6  user+sys:       55.6  wallclock:       10.1
  
  start of program der1b
  
   
  forces (hartrees/bohr) : total     
   
 atom  label           x              y              z
 ---- --------   -------------  -------------  -------------
    1 C1         -1.167178E-03  -9.639223E-04   1.039485E-04
    2 C2         -2.063726E-04  -7.347492E-05  -2.422611E-03
    3 C3         -1.775121E-03  -6.446810E-03  -4.820122E-04
    4 C4          2.235170E-03   1.134872E-03   1.098295E-02
    5 C5          1.642131E-03   4.379308E-03  -3.376080E-03
    6 C6         -4.065692E-03   3.694420E-03  -1.421788E-03
    7 C7          2.745984E-03   9.054698E-04  -2.549828E-03
    8 N8         -7.034284E-03   1.226634E-03   2.731064E-04
    9 C9          3.945636E-03   9.562261E-04  -3.527828E-03
   10 C10         1.583037E-03  -1.320514E-03  -2.299391E-04
   11 C11        -7.586112E-04   2.542791E-03   2.408383E-04
   12 C12        -4.828620E-04   8.476549E-04  -1.682461E-03
   13 C13         1.186135E-04   1.889893E-03   2.403495E-03
   14 C14         1.915328E-03  -3.268142E-03  -1.151600E-03
   15 C15        -1.238332E-03   5.022745E-03  -1.310539E-04
   16 C16        -1.296027E-03  -3.639065E-04   7.398149E-04
   17 C17         2.147170E-03  -1.789770E-03  -1.832016E-03
   18 O18        -1.662222E-03  -1.689150E-03  -2.304837E-03
   19 C19         3.127331E-03   3.745299E-04   4.817621E-03
   20 O20         1.237784E-03  -2.784665E-03   3.337271E-03
   21 C21        -3.153354E-03   1.572239E-03  -4.555291E-03
   22 C22         1.662651E-02   3.387774E-03  -4.349985E-02
   23 N23        -1.483131E-02  -2.817998E-03   4.243336E-02
   24 C24         1.612263E-03  -3.277380E-04  -2.593137E-03
   25 C25         8.484487E-04  -1.225210E-03  -2.547280E-03
   26 C26        -3.049103E-03  -4.631076E-05  -1.428514E-03
   27 C27         4.641867E-03  -5.842368E-04   1.397854E-03
   28 C28         1.997164E-06  -5.515878E-04   2.469704E-03
   29 C29        -2.845659E-03   7.384948E-04  -3.571040E-03
   30 O30         9.537562E-05   3.358103E-03  -3.722331E-05
   31 C31        -1.973457E-03  -5.334682E-03   1.253869E-03
   32 O32        -3.805855E-03  -1.491117E-03   7.357436E-04
   33 C33         3.398722E-03   4.324185E-03  -5.524132E-05
   34 H34         1.909007E-04  -4.938103E-04   4.134009E-04
   35 H35        -1.521271E-04  -1.505726E-03  -6.137383E-04
   36 H36        -5.076494E-05   1.945998E-04  -4.939209E-04
   37 H37         4.681286E-04  -1.232650E-03  -1.100458E-03
   38 H38         1.825030E-03  -4.411187E-03   1.772425E-03
   39 H39         1.008945E-03  -1.660806E-04   6.020184E-04
   40 H40         5.910209E-05   5.921055E-04   2.925089E-04
   41 H41        -1.198396E-03   3.405058E-04  -1.038058E-03
   42 H42         1.139783E-03   9.951457E-04   9.707586E-04
   43 H43         2.171520E-03   8.266093E-03   1.469222E-03
   44 H44         9.499674E-04  -1.693115E-03   6.912941E-04
   45 H45        -4.969019E-04  -1.227807E-03   1.988499E-03
   46 H46        -5.409680E-04  -4.474909E-04   4.730707E-04
   47 H47        -1.548396E-03   2.298790E-04   1.871029E-03
   48 H48        -1.073038E-03   7.254815E-04  -1.928929E-05
   49 H49         1.288463E-05  -6.024418E-04   4.144850E-04
   50 H50        -5.681234E-04  -3.959730E-04   8.289367E-04
   51 H51         2.297497E-05  -2.507570E-04   2.822819E-04
   52 H52         2.702521E-04  -8.347581E-04   1.340458E-04
   53 H53         3.162624E-05  -7.163307E-04   6.131606E-04
   54 H54        -7.535281E-06  -7.993748E-04   6.641002E-04
   55 H55         5.425267E-04   6.969473E-04  -4.504252E-04
   56 H56         1.570542E-03   5.898204E-04  -1.552135E-04
   57 H57        -1.045189E-03  -4.913897E-05  -8.356595E-04
   58 H58        -6.605633E-04  -3.429351E-05  -6.792084E-04
   59 H59        -2.995277E-04  -2.385451E-04  -7.549147E-04
   60 H60         6.323628E-04  -5.494489E-04   1.419132E-03
   61 H61         6.686171E-04  -5.631074E-04   7.018708E-04
   62 H62         4.450675E-04  -3.122045E-04   8.330585E-04
   63 H63        -4.087404E-04  -4.048022E-04  -7.323187E-05
   64 H64         1.101385E-03  -6.430932E-05   3.854171E-04
   65 H65        -9.360516E-04  -1.602643E-03  -2.295620E-03
   66 H66         3.319016E-04   1.480034E-03  -6.939686E-05
   67 H67         3.272278E-04   8.225542E-04   2.506332E-05
   68 H68         1.324175E-04   1.023065E-03  -3.417818E-04
   69 H69        -1.087371E-03  -1.040065E-03   1.154508E-04
   70 H70        -7.822065E-04  -6.314743E-04  -1.170427E-04
   71 H71        -5.676285E-04  -6.301201E-04   1.833071E-04
 -------------   -------------  -------------  -------------
     total        1.057567E-03   3.346838E-04  -1.034713E-04
   
  Peak memory usage:   6747 Mb
  
  end of program der1b
   
 Time(der1b)  user:      122.3  user+sys:      122.3  wallclock:        8.3
  
  start of program geopt
  
 ----------------------------------------------------------------------------
  Geometry optimization step  3
  Total energy:     -1461.40120779943 hartrees
 ----------------------------------------------------------------------------
  
  
  Level shifts adjusted to satisfy step-size constraints
   Step size:    0.3003397
   Cos(theta):   0.5095635
   Final level shift:  -4.5687108E-02
  
  energy change:          -7.8672E-03 .  (  5.0000E-05 )
  gradient maximum:        5.4195E-02 .  (  4.5000E-04 )
  gradient rms:            6.5423E-03 .  (  3.0000E-04 )
  displacement maximum:    1.1102E-01 .  (  1.8000E-03 )
  displacement rms:        2.0067E-02 .  (  1.2000E-03 )
  
  predicted energy change:  -9.5532E-03
  step size:     0.30033
  trust radius:  0.30000
  
  molecular structure not yet converged...
  
  center of mass moved by:
     x:     1.3881E-02     y:     3.9120E-02     z:    -9.0146E-03
  
  new geometry: 
                                   angstroms
  atom               x                 y                 z
  C1            0.8437782360     -0.3544416614      0.1306858840 
  C2            2.3870115473     -0.3408913408      0.1604438502 
  C3            2.9669176836     -0.8091978615     -1.1958913201 
  C4            2.9759054618      1.0156899998      0.7567749831 
  C5            2.4060424972      2.3197089615      0.0961856787 
  C6            2.7176964966      2.5443215003     -1.3989572318 
  C7            2.1894846025      3.9076898345     -1.8810496400 
  N8            2.4775099547      4.1720448975     -3.3123004665 
  C9            1.9690736585      3.1276412089     -4.2204820860 
  C10           2.1311760731      5.5646004500     -3.6976421658 
  C11           2.6268957914      5.9363442073     -5.1075118438 
  C12           2.3596280682      7.3813794952     -5.4985427895 
  C13           1.5753289072      7.6602543504     -6.6465720848 
  C14           1.3694023575      8.9630585273     -7.0962537012 
  C15           1.9763067629     10.0317557563     -6.4278059371 
  C16           2.7537518645      9.7712808039     -5.2463133137 
  C17           2.9226830172      8.4584956491     -4.7956601053 
  O18           3.2821380218     10.8715899038     -4.6488559627 
  C19           4.1300122542     10.7315657306     -3.4676513110 
  O20           1.8879460647     11.3343796142     -6.8023817461 
[...]
   
  number of gridpoints: 
     atom       H50      H51      H52      H53      H54      H55      H56
  grid # 1      104      108      105      105      114      113      107
  grid # 2      416      430      423      418      440      433      416
  grid # 3      332      610      619      489      925      804      392
  grid # 4     4304     4304     4304     4304     4304     4304     4304
  grid # 5     1192     1192     1192     1192     1192     1192     1192
  grid # 6     5226     5226     5226     5226     5226     5226     5226
   
  number of gridpoints: 
     atom       H57      H58      H59      H60      H61      H62      H63
  grid # 1      111      111      109      111      112      112      109
  grid # 2      448      435      428      448      435      436      422
  grid # 3     1298     1020      665     1298     1044     1051      444
  grid # 4     4304     4304     4304     4304     4304     4304     4304
  grid # 5     1192     1192     1192     1192     1192     1192     1192
  grid # 6     5226     5226     5226     5226     5226     5226     5226
   
  number of gridpoints: 
     atom       H64      H65      H66      H67      H68      H69      H70
  grid # 1      113      107      111      111      111      111      111
  grid # 2      433      411      448      435      435      448      436
  grid # 3      795      309     1299     1014      987     1300     1053
  grid # 4     4304     4304     4304     4304     4304     4304     4304
  grid # 5     1192     1192     1192     1192     1192     1192     1192
  grid # 6     5226     5226     5226     5226     5226     5226     5226
   
  number of gridpoints: 
     atom       H71    total
  grid # 1      111     7212
  grid # 2      435    27451
  grid # 3     1044    34242
  grid # 4     4304   305584
  grid # 5     1192    84632
  grid # 6     5226   371046
   
  Peak memory usage:   4785 Mb
  
  end of program grid
   
 Time(grid)  user:       53.3  user+sys:       53.3  wallclock:        4.3
  
  start of program rwr
  
  Peak memory usage:   4751 Mb
  
  end of program rwr
   
 Time(rwr)  user:       75.1  user+sys:       75.1  wallclock:        8.1
  
  start of program scf
  
 Energy computed with NOPS off.
  
       i  u  d  i  g                   
       t  p  i  c  r                                 RMS    maximum
       e  d  i  u  i                       energy  density   DIIS  
       r  t  s  t  d       total energy    change  change    error 
  
etot    1  N  N  2  U   -1461.35263195452           8.8E-04  2.1E-02
etot    2  Y  Y  6  M   -1461.41331885667  6.1E-02  1.7E-03  9.7E-03
etot    3  N  Y  2  U   -1461.32928518176 -8.4E-02  1.8E-03  3.6E-02
etot    4  N  Y  2  U   -1461.41137334525  8.2E-02  3.7E-04  1.3E-02
etot    5  Y  Y  6  M   -1461.41478090002  3.4E-03  1.6E-04  7.3E-03
etot    6  Y  Y  6  M   -1461.41531298548  5.3E-04  1.1E-04  3.0E-03
etot    7  N  Y  2  U   -1461.41550285363  1.9E-04  1.4E-05  1.3E-03
etot    8  N  Y  2  U   -1461.41551882265  1.6E-05  1.3E-05  1.3E-03
etot    9  N  Y  2  U   -1461.41553493169  1.6E-05  5.6E-06  7.1E-04
etot   10  N  Y  2  U   -1461.41553890141  4.0E-06  8.2E-06  4.7E-04
etot   11  N  Y  2  U   -1461.41554195602  3.1E-06  3.0E-06  9.4E-05
etot   12  N  N  2  U   -1461.41554213442  1.8E-07  0.0E+00  0.0E+00
  
  
 Energy components, in hartrees:
   (A)  Nuclear repulsion............    3361.67440022240
   (E)  Total one-electron terms.....   -8645.18815171304
   (I)  Total two-electron terms.....    3822.09820935622
   (L)  Electronic energy............   -4823.08994235682  (E+I)
   (N)  Total energy.................   -1461.41554213442  (A+L)
   (O)  Gas phase energy.............   -1461.41554213442
  
                                 Total             Coulomb       Exchange+Corr.
 Total two-electron terms    3822.09820935622    4030.63114052841    -208.53293117218
   Hamiltonian  1........    1949.07593741085    2023.25223466047     -74.17629724962
   Hamiltonian  2........    1933.67033796133    2007.37890586793     -73.70856790660
  
 SCFE: SCF energy: UDFT(b3lyp)     -1461.41554213442 hartrees   iterations:  12
  
 
 Alpha HOMO energy:    -0.30478
 Alpha LUMO energy:    -0.11392
 
  Alpha Orbital energies (hartrees): 
   -19.29743   -19.28868   -19.27386   -19.27177   -14.45681   -14.43404
   -10.37698   -10.37236   -10.35468   -10.35410   -10.33941   -10.33698
   -10.32820   -10.32628   -10.32217   -10.32049   -10.31962   -10.31857
   -10.31828   -10.30684   -10.30645   -10.30581   -10.30474   -10.29804
   -10.29645   -10.29494   -10.29117   -10.29109   -10.28868   -10.28842
   -10.28561   -10.26002   -10.25596    -1.19230    -1.17124    -1.16964
    -1.15049    -1.04194    -1.01707    -0.97650    -0.96703    -0.92919
    -0.90481    -0.88345    -0.87160    -0.86717    -0.85615    -0.85337
    -0.83417    -0.81684    -0.80603    -0.80274    -0.79224    -0.78457
    -0.77339    -0.76361    -0.72661    -0.71962    -0.70617    -0.69305
    -0.68766    -0.67775    -0.66128    -0.64574    -0.63624    -0.62006
    -0.61358    -0.61243    -0.60183    -0.59608    -0.58666    -0.58488
    -0.58093    -0.57404    -0.56969    -0.56400    -0.56194    -0.56160
    -0.55096    -0.54885    -0.54789    -0.54684    -0.53758    -0.53423
    -0.53192    -0.52699    -0.51707    -0.51321    -0.50972    -0.50556
    -0.50167    -0.49727    -0.49284    -0.49084    -0.48913    -0.48500
    -0.47774    -0.47574    -0.47319    -0.47238    -0.46700    -0.46108
    -0.45471    -0.45018    -0.44248    -0.44029    -0.43749    -0.43635
    -0.42947    -0.42468    -0.42324    -0.42309    -0.42146    -0.41882
    -0.41567    -0.41166    -0.40330    -0.39661    -0.35584    -0.33883
    -0.32971    -0.31958    -0.30478    -0.11392    -0.10735    -0.09806
    -0.09441    -0.05735    -0.05177    -0.04030    -0.02885    -0.01355
    -0.01051
 
 
 Beta HOMO energy:    -0.28713
 Beta LUMO energy:    -0.27550
 
  Beta Orbital energies (hartrees): 
   -19.29443   -19.28648   -19.27209   -19.27018   -14.45281   -14.43406
   -10.37517   -10.37135   -10.35383   -10.35335   -10.33944   -10.33709
   -10.32827   -10.32613   -10.32223   -10.32055   -10.31968   -10.31823
   -10.31737   -10.30655   -10.30560   -10.30513   -10.30498   -10.29855
   -10.29623   -10.29484   -10.29105   -10.29053   -10.28861   -10.28858
   -10.28585   -10.26002   -10.25595    -1.18672    -1.16785    -1.16459
    -1.14706    -1.03569    -1.01701    -0.97323    -0.96557    -0.92837
    -0.90203    -0.88246    -0.87006    -0.86574    -0.85540    -0.85199
    -0.83367    -0.81593    -0.80452    -0.80212    -0.79108    -0.78355
    -0.77264    -0.76172    -0.72519    -0.71811    -0.70522    -0.69101
    -0.68638    -0.67568    -0.66071    -0.64411    -0.63548    -0.61892
    -0.61256    -0.61100    -0.60078    -0.59512    -0.58523    -0.58174
    -0.57374    -0.57284    -0.56807    -0.56127    -0.55975    -0.55739
    -0.54955    -0.54759    -0.54595    -0.54555    -0.53650    -0.53308
    -0.53053    -0.52644    -0.51625    -0.51192    -0.50941    -0.50365
    -0.49919    -0.49571    -0.49216    -0.48956    -0.48730    -0.48228
    -0.47623    -0.47459    -0.47218    -0.47189    -0.46638    -0.46003
    -0.45351    -0.44944    -0.44181    -0.43698    -0.43421    -0.43092
    -0.42864    -0.42148    -0.42135    -0.41837    -0.41585    -0.41480
    -0.41383    -0.40759    -0.40204    -0.39523    -0.35095    -0.33579
    -0.30203    -0.28713    -0.27550    -0.10136    -0.10119    -0.09190
    -0.09054    -0.05720    -0.05092    -0.03977    -0.02755    -0.01312
 
  
  
    Unrestricted Spin Properties ...
    Sz*(Sz+1)      0.750
    <S**2> ...     0.755
  
  
  Peak memory usage:   6753 Mb
  
  end of program scf
   
 Time(scf)  user:      500.9  user+sys:      500.9  wallclock:       35.7
  
  start of program der1a
  
  Peak memory usage:   4838 Mb
  
  end of program der1a
   
 Time(der1a)  user:        3.0  user+sys:        3.0  wallclock:        0.6
  
  start of program rwr
  
  Peak memory usage:   4758 Mb
  
  end of program rwr
   
 Time(rwr)  user:       65.6  user+sys:       65.6  wallclock:       10.5
  
  start of program der1b
  
   
  forces (hartrees/bohr) : total     
   
 atom  label           x              y              z
 ---- --------   -------------  -------------  -------------
    1 C1          1.028850E-04   1.695450E-04  -3.209641E-04
    2 C2         -1.629249E-04   4.943237E-05  -2.328525E-05
    3 C3          3.935131E-04   2.511893E-04   5.735866E-04
    4 C4         -3.044606E-04  -6.999084E-06  -5.349878E-04
    5 C5         -7.493618E-05   7.649958E-04  -1.294269E-03
    6 C6         -1.134201E-03   4.243140E-04  -3.425352E-04
    7 C7         -4.555775E-04  -2.351672E-03  -3.857170E-03
    8 N8          1.236011E-03   2.625976E-03   1.308022E-03
    9 C9          1.600919E-03  -4.003207E-04  -8.341770E-04
   10 C10        -1.159744E-04  -2.879060E-03   9.811793E-04
   11 C11        -8.256207E-04  -1.099778E-03   6.111064E-04
   12 C12         1.210658E-03  -1.483838E-03   3.369415E-04
   13 C13        -4.028363E-04   1.231985E-03  -8.553068E-04
   14 C14        -1.756406E-05   1.104144E-04  -6.013399E-05
   15 C15         6.487499E-04   1.694175E-03  -2.309564E-04
   16 C16         4.962215E-04  -1.952998E-03  -1.769202E-03
   17 C17        -6.279051E-04  -4.205958E-04   1.361138E-03
   18 O18        -1.052167E-03   2.098364E-03   8.984291E-04
   19 C19         1.213982E-03  -1.089140E-03   3.848642E-04
   20 O20         1.631077E-05  -4.268722E-04   9.004251E-04
   21 C21         5.494972E-05   8.966222E-05  -5.016894E-04
   22 C22         5.200294E-04  -6.360366E-04   4.113215E-05
   23 N23        -6.815563E-04   1.109930E-03  -1.249190E-03
   24 C24        -3.832399E-04   3.430914E-04   8.827217E-04
   25 C25         5.906611E-06   3.709072E-04  -1.459062E-04
   26 C26         1.763797E-04  -6.956052E-04   6.531967E-04
   27 C27         2.112850E-04   7.624261E-04   2.855419E-04
   28 C28        -3.481212E-04   4.584475E-04  -9.911871E-05
   29 C29         1.123504E-04  -5.355215E-05  -1.026909E-03
   30 O30         4.268205E-04  -9.762695E-04  -4.782826E-04
   31 C31        -1.124115E-04   3.263648E-04   7.658730E-04
   32 O32         7.266097E-06  -6.625726E-04   8.980271E-04
   33 C33         1.495145E-04   6.073278E-05  -5.528039E-04
   34 H34        -2.221292E-05   1.006661E-04   2.269378E-04
   35 H35         3.227839E-04  -9.961770E-05  -3.837621E-05
   36 H36        -8.704397E-05  -9.760588E-05  -1.340757E-04
   37 H37        -4.678292E-05   7.797189E-05  -2.376491E-04
   38 H38         5.004427E-04  -1.389193E-04  -2.178523E-04
   39 H39         7.419887E-05   1.328656E-04   1.881012E-04
   40 H40         1.231860E-05  -8.895953E-05   2.864768E-04
   41 H41         2.203617E-04   1.561163E-04   7.234401E-04
   42 H42         5.826303E-05  -2.100159E-04   6.232237E-04
   43 H43        -2.816981E-05   1.236370E-04   4.458495E-05
   44 H44         4.427033E-04  -2.883057E-04   1.442034E-03
   45 H45         6.722624E-04   3.717130E-04   7.938482E-04
   46 H46        -5.374196E-04  -6.399953E-04   6.395895E-04
   47 H47        -1.623012E-05   1.568494E-04   5.710985E-04
   48 H48        -3.050729E-04   1.648477E-05   2.332002E-04
   49 H49        -7.939835E-04   2.358062E-04   4.668408E-04
   50 H50        -4.136517E-04   9.300578E-04   3.937033E-04
   51 H51        -9.563808E-06   1.266873E-03  -1.034654E-03
   52 H52         2.339079E-04   3.842185E-04  -7.298752E-04
   53 H53         1.982115E-05   1.711237E-04   2.503425E-04
   54 H54        -1.925956E-04  -1.535864E-04  -3.062329E-04
   55 H55         3.767367E-05  -1.170780E-04   1.520279E-04
   56 H56         2.623015E-04   4.104854E-05   6.579653E-05
   57 H57         8.059641E-05  -7.603837E-05  -1.255439E-04
   58 H58        -9.524247E-06   2.854076E-05   1.102105E-04
   59 H59        -3.261616E-04  -4.946692E-04   4.616247E-04
   60 H60         6.970765E-06   9.842148E-05  -1.134875E-04
   61 H61         4.306559E-05   7.632177E-05  -3.137553E-05
   62 H62         4.682464E-05   9.656194E-06   7.372246E-06
   63 H63        -1.656916E-04   5.141203E-04   1.299728E-04
   64 H64        -2.342270E-05  -6.295388E-05   1.354398E-04
   65 H65         2.338219E-04   2.220042E-04  -9.097230E-05
   66 H66         8.917893E-05  -9.382683E-05   1.354468E-04
   67 H67         1.944602E-04   1.320911E-04   2.768490E-05
   68 H68        -1.402600E-04  -5.675081E-05  -1.069537E-04
   69 H69         4.746853E-05  -1.143660E-04   1.673412E-04
   70 H70        -5.294977E-06   4.976711E-05   1.492693E-05
   71 H71         8.165615E-05   2.050535E-04   1.944764E-04
 -------------   -------------  -------------  -------------
     total        2.442256E-03   5.753622E-04   2.023990E-03
   
  Peak memory usage:   6747 Mb
  
  end of program der1b
   
 Time(der1b)  user:      127.7  user+sys:      127.7  wallclock:        8.6
  
  start of program geopt
  
 ----------------------------------------------------------------------------
  Geometry optimization step100
  Total energy:     -1461.41554213442 hartrees
 ----------------------------------------------------------------------------
  Invalidating history between points  89  and  98

  
  Hessian eigenvalues: 
   -6.40858E-01    0.00000E+00    0.00000E+00    0.00000E+00    0.00000E+00
    0.00000E+00    0.00000E+00    0.00000E+00    0.00000E+00    0.00000E+00
    0.00000E+00    0.00000E+00    0.00000E+00    0.00000E+00    0.00000E+00
    0.00000E+00    0.00000E+00    0.00000E+00    1.19833E-03    4.98166E-03
    7.66477E-03    9.40481E-03    9.75255E-03    1.25438E-02    1.44243E-02
    1.78331E-02    1.82723E-02    1.98764E-02    2.00514E-02    2.03791E-02
    2.07853E-02    2.11534E-02    2.50762E-02    2.58619E-02    2.95964E-02
    3.17354E-02    3.20455E-02    3.66297E-02    3.73366E-02    3.76293E-02
    3.89389E-02    4.14669E-02    4.70754E-02    4.75020E-02    6.54343E-02
    7.18382E-02    7.45560E-02    7.70814E-02    7.79747E-02    8.83700E-02
    8.99493E-02    9.02924E-02    9.03304E-02    9.04258E-02    9.32857E-02
    9.84453E-02    1.00567E-01    1.03771E-01    1.13021E-01    1.26699E-01
    1.30170E-01    1.30348E-01    1.30395E-01    1.30722E-01    1.32861E-01
    1.33418E-01    1.39562E-01    1.43472E-01    1.49850E-01    1.60471E-01
    1.62159E-01    1.63924E-01    1.65664E-01    1.65984E-01    1.69380E-01
    1.75978E-01    1.79307E-01    1.91444E-01    1.99165E-01    2.04388E-01
    2.04769E-01    2.09020E-01    2.11956E-01    2.15251E-01    2.18944E-01
    2.22095E-01    2.22231E-01    2.22592E-01    2.22791E-01    2.22928E-01
    2.26842E-01    2.32084E-01    2.33763E-01    2.33947E-01    2.34659E-01
    2.35032E-01    2.36492E-01    2.37004E-01    2.39951E-01    2.41475E-01
    2.43152E-01    2.50094E-01    2.52320E-01    2.55821E-01    2.56702E-01
    2.57430E-01    2.57850E-01    2.58066E-01    2.60176E-01    2.63590E-01
    2.66334E-01    2.70226E-01    2.73755E-01    2.76297E-01    2.79552E-01
    2.81582E-01    2.81923E-01    2.87634E-01    2.90503E-01    2.92079E-01
    2.94928E-01    2.96453E-01    2.97227E-01    2.98831E-01    2.99765E-01
    3.08758E-01    3.09441E-01    3.10789E-01    3.11374E-01    3.11937E-01
    3.14141E-01    3.17393E-01    3.18647E-01    3.23832E-01    3.25631E-01
    3.26759E-01    3.29577E-01    3.30482E-01    3.32086E-01    3.34352E-01
    3.34635E-01    3.34833E-01    3.34849E-01    3.35709E-01    3.35732E-01
    3.35802E-01    3.35982E-01    3.36027E-01    3.36066E-01    3.36179E-01
    3.36221E-01    3.36268E-01    3.36480E-01    3.36498E-01    3.36532E-01
    3.36684E-01    3.36903E-01    3.37188E-01    3.37266E-01    3.37609E-01
    3.38206E-01    3.38373E-01    3.38884E-01    3.40533E-01    3.40821E-01
    3.42752E-01    3.43634E-01    3.43725E-01    3.43902E-01    3.43988E-01
    3.46399E-01    3.48118E-01    3.48679E-01    3.49633E-01    3.49737E-01
    3.49843E-01    3.50324E-01    3.55560E-01    3.57177E-01    3.59787E-01
    3.60103E-01    3.65253E-01    3.71350E-01    3.71815E-01    3.74450E-01
    3.81439E-01    3.83169E-01    3.83698E-01    3.84437E-01    3.90567E-01
    3.94018E-01    3.94668E-01    3.98826E-01    3.99093E-01    3.99440E-01
    4.00222E-01    4.02691E-01    4.09607E-01    4.10694E-01    4.12245E-01
    4.15896E-01    4.17600E-01    4.23557E-01    4.25752E-01    4.74509E-01
    4.78824E-01    4.89223E-01    5.15178E-01    5.22125E-01    5.28041E-01
    5.45682E-01    5.52527E-01    5.71590E-01    5.80812E-01    5.98152E-01
    6.14278E-01    6.20419E-01    6.31469E-01    6.34512E-01    6.60649E-01
    7.41902E-01    7.98255E-01    8.01400E-01    8.83873E-01
  
 WARNING: Hessian has wrong number of negative eigenvalues:           1
  
  
  Level shifts adjusted to satisfy step-size constraints
   Step size:    0.3004933
   Cos(theta):   0.6784553
   Final level shift:  -6.8543720E-01
  
  energy change:          -1.4018E-03 .  (  5.0000E-05 )
  gradient maximum:        7.6111E-03 .  (  4.5000E-04 )
  gradient rms:            1.4104E-03 .  (  3.0000E-04 )
  displacement maximum:    5.7842E-02 .  (  1.8000E-03 )
  displacement rms:        1.2714E-02 .  (  1.2000E-03 )
  
  predicted energy change:  -1.4255E-02
  step size:     0.19029
  trust radius:  0.30000
  
  stopping optimization: maximum number of iterations reached
  
  
 ERROR 7019: fatal error
  
  geometry optimization failed to converge


 ----------------------------------------------------------------------
 Jaguar cannot recover from this error and will now abort. 
 For technical support please contact the Schrodinger Support Center at
 http://www.schrodinger.com/supportcenter/ or help@schrodinger.com
 ----------------------------------------------------------------------



 Total cpu seconds     user:   67517.897   user+sys:   67517.897

  
Date:          Mon 09 Jan 2017 00:10:22
SCHRODINGER:   /home/applications/Schrodinger_Suites_2016-3
uname -a:      Linux n034 2.6.32-431.el6.x86_64 #1 SMP Fri Nov 22 03:15:09 UTC 2013 x86_64 x86_64 x86_64 GNU/Linux
FQDN:          n034.panther.net
Main memory:   32214 MB
Free disk:     39868131 MB
Host ID:       3440b5e4a526
Machine name:  n034
OS:            CentOS release 6.5 (Final)
CPU:           Intel(R) Xeon(R) CPU E5-2650 0 @ 2.00GHz
Processors:    16
Memory:        33779597 kB
Swap:          0 kB
kernel:        2.6.32-431.el6.x86_64
glibc:         2.12
Product:       aacg-v17015-Linux-x86_64 (4d5e4891b95edc3974c2f897a8f2bbfda884f701)
Product:       bioluminate-v24015-Linux-x86_64 (c7e9ddecc01a31ee6f1f49fd0866fec40be878d9)
Product:       canvas-v29015-Linux-x86_64 (eefcb58a94f04937200c16cc72ce65c92553d20f)
Product:       combiglide-v42015-Linux-x86_64 (649832a5082f66cb6c92b108724a8a540362cfc8)
Product:       desmond-v47015-Linux-x86_64 (cd195a3f6f7c69c2e4a7d397341063b5fd7f9fa7)
Product:       epik-v37015-Linux-x86_64 (3a54a2d4762d4d26ff3f381b6eba74ffec5b135e)
Product:       glide-v72015-Linux-x86_64 (7bda026d4634ee2331fde20a7d677e0633c1458c)
Product:       impact-v72015-Linux-x86_64 (78357f574412e54dad3121cb0c6c311417a07a40)
Product:       jaguar-v93015-Linux-x86_64 (c979cf15abdb397bfe3d00837bb358b46bdb9998)
Product:       knime-v35015-Linux-x86_64 (fe637e1275d976d9c56b403a2c6666f075125988)
Product:       macromodel-v113015-Linux-x86_64 (c5bdb4b8bf816c7fdd53141b85dce76bf6aeaad9)
Product:       maestro-v107015-Linux-x86_64 (c112f21020c11ad6d55a6f13bf2f9e71852ad421)
Product:       mcpro-v43015-Linux-x86_64 (a66fce8e103e80d6ab062d78a9dd96a664b153ee)
Product:       mmshare-v35015-Linux-x86_64 (6deaa6dca9205019a9800e1f617340ea168c2739)
Product:       phase-v48015-Linux-x86_64 (5f5e3df18b3bb719c7300fee47d9ebb55737e27a)
Product:       pldb-v35015-Linux-x86_64 (5fa9a4c6731880caf6cab7034454a839dd077a79)
Product:       psp-v45015-Linux-x86_64 (af3c2b23dcf79d506aa27a3bffa4cca73631134b)
Product:       qikprop-v49015-Linux-x86_64 (5521a265f711fdfde92d556bb69a9e3f62beb1bd)
